Program Version,EnergyPlus, Version 23.2.0-7636e6b3e9, YMD=2024.11.10 12:46
1,5,Environment Title[],Latitude[deg],Longitude[deg],Time Zone[],Elevation[m]
2,8,Day of Simulation[],Month[],Day of Month[],DST Indicator[1=yes 0=no],Hour[],StartMinute[],EndMinute[],DayType
3,5,Cumulative Day of Simulation[],Month[],Day of Month[],DST Indicator[1=yes 0=no],DayType  ! When Daily Report Variables Requested
4,2,Cumulative Days of Simulation[],Month[]  ! When Monthly Report Variables Requested
5,1,Cumulative Days of Simulation[] ! When Run Period Report Variables Requested
6,1,Calendar Year of Simulation[] ! When Annual Report Variables Requested
7,1,Environment,Site Outdoor Air Drybulb Temperature [C] !Hourly
8,1,Environment,Site Outdoor Air Dewpoint Temperature [C] !Hourly
9,1,Environment,Site Outdoor Air Wetbulb Temperature [C] !Hourly
10,1,Environment,Site Outdoor Air Humidity Ratio [kgWater/kgDryAir] !Hourly
11,1,Environment,Site Outdoor Air Relative Humidity [%] !Hourly
12,1,Environment,Site Outdoor Air Barometric Pressure [Pa] !Hourly
13,1,Environment,Site Wind Speed [m/s] !Hourly
14,1,WHOLEHOUSE_01D06913,Zone People Total Heating Energy [J] !Hourly
136,1,WHOLEHOUSE_01D06913,Zone Lights Total Heating Energy [J] !Hourly
210,1,WHOLEHOUSE_01D06913,Zone Electric Equipment Total Heating Energy [J] !Hourly
211,1,WHOLEHOUSE_01D06913,Zone Mean Radiant Temperature [C] !Hourly
212,1,WHOLEHOUSE_01D06913_SPACE,Zone Windows Total Transmitted Solar Radiation Energy [J] !Hourly
213,1,WHOLEHOUSE_01D06913_SPACE,Zone Exterior Windows Total Transmitted Beam Solar Radiation Energy [J] !Hourly
214,1,WHOLEHOUSE_01D06913_SPACE,Zone Exterior Windows Total Transmitted Diffuse Solar Radiation Energy [J] !Hourly
215,1,WHOLEHOUSE_01D06913,Zone Windows Total Heat Gain Energy [J] !Hourly
216,1,WHOLEHOUSE_01D06913,Zone Windows Total Heat Loss Energy [J] !Hourly
217,1,WHOLEHOUSE_01D06913,Zone Mean Air Temperature [C] !Hourly
218,1,WHOLEHOUSE_01D06913,Zone Infiltration Total Heat Loss Energy [J] !Hourly
219,1,WHOLEHOUSE_01D06913,Zone Infiltration Total Heat Gain Energy [J] !Hourly
220,1,WHOLEHOUSE_01D06913,Zone Infiltration Standard Density Volume Flow Rate [m3/s] !Hourly
221,1,WHOLEHOUSE_01D06913,Zone Infiltration Air Change Rate [ach] !Hourly
222,1,WHOLEHOUSE_01D06913,Zone Ventilation Total Heat Loss Energy [J] !Hourly
223,1,WHOLEHOUSE_01D06913,Zone Ventilation Total Heat Gain Energy [J] !Hourly
224,1,WHOLEHOUSE_01D06913,Zone Ventilation Standard Density Volume Flow Rate [m3/s] !Hourly
225,1,WHOLEHOUSE_01D06913,Zone Ventilation Air Change Rate [ach] !Hourly
275,1,WHOLEHOUSE_01D06913,Zone Air Relative Humidity [%] !Hourly
606,1,WHOLEHOUSE_01D06913_SPACE RV2024_RESILIENCE_PEOPLE,Zone Thermal Comfort Pierce Model Standard Effective Temperature [C] !Hourly
607,1,WHOLEHOUSE_01D06913,Zone Heat Index [C] !Hourly
608,1,WHOLEHOUSE_01D06913,Zone Humidity Index [] !Hourly
960,1,WHOLEHOUSE_01D06913,Zone Mechanical Ventilation Standard Density Volume Flow Rate [m3/s] !Hourly
961,1,WHOLEHOUSE_01D06913,Zone Mechanical Ventilation Air Changes per Hour [ach] !Hourly
End of Data Dictionary
1,RUN PERIOD 1,  43.90, -92.50,  -6.00, 398.00
2,1, 6,28, 0, 1, 0.00,60.00,Wednesday
7,19.816666666666666
8,15.6
9,17.076712329949938
10,0.01154823991827209
11,76.83333333333333
12,97391.66666666667
13,3.725
14,2591999.9930504933
136,0.0
210,118799.99999999334
211,22.586622213009473
212,0.0
213,0.0
214,0.0
215,0.0
216,671758.0481233997
217,21.560997997547986
606,20.078258278137714
607,21.584902887031344
608,25.987730053133678
218,875051.076556771
219,0.0
220,0.1072872219472344
221,0.4769549979235293
222,866979.4537656631
223,25981.367514855283
224,0.8844624344501987
225,3.9295905276530316
275,69.40622328713462
960,0.0
961,0.0
2,1, 6,28, 0, 2, 0.00,60.00,Wednesday
7,18.55
8,15.25
9,16.4045250089434
10,0.011236592528216183
11,81.0
12,97541.66666666667
13,3.1
14,2591999.9930504933
136,0.0
210,118799.99999999334
211,22.051824328407765
212,0.0
213,0.0
214,0.0
215,0.0
216,763832.8546946484
217,20.501177194228486
606,19.262715627716343
607,20.504397255993656
608,24.741046230237643
218,1059617.6071855752
219,0.0
220,0.10797134433023016
221,0.4788238390964274
222,1719739.702380871
223,0.0
224,0.9999229283697142
225,4.4343879225827605
275,72.67200460034417
960,0.0
961,0.0
2,1, 6,28, 0, 3, 0.00,60.00,Wednesday
7,18.3
8,15.0
9,16.168571145145677
10,0.011062970109378662
11,81.0
12,97500.0
13,2.5166666666666666
14,2591999.9930504933
136,0.0
210,118799.99999999334
211,21.55661101514823
212,0.0
213,0.0
214,0.0
215,0.0
216,740375.099914554
217,20.139214179265437
606,18.781326990234152
607,20.107315682359705
608,24.164583814496122
218,927162.4662484142
219,0.0
220,0.10804739504344303
221,0.47858946514924333
222,914887.8206006897
223,0.0
224,0.9561838727736914
225,4.23537160136205
275,72.71327985748727
960,0.0
961,0.0
2,1, 6,28, 0, 4, 0.00,60.00,Wednesday
7,18.008333333333333
8,15.0
9,16.095283964503878
10,0.011089936061048668
11,82.75
12,97558.33333333333
13,2.391666666666667
14,2591999.9930504933
136,0.0
210,118799.99999999334
211,21.16698280200885
212,0.0
213,0.0
214,0.0
215,0.0
216,733327.3555770394
217,20.00000076906625
606,18.479265502736983
607,19.97298568651398
608,24.037405845766113
218,976266.8923907513
219,0.0
220,0.10821576865254735
221,0.47882670069803446
222,753517.3030426691
223,0.0
224,0.9901335209016402
225,4.38104642579408
275,73.43346197816986
960,0.0
961,0.0
2,1, 6,28, 0, 5, 0.00,60.00,Wednesday
7,17.45
8,15.35
9,16.096848246119034
10,0.011319051212595172
11,87.5
12,97600.0
13,2.308333333333333
14,2591999.9930504933
136,0.0
210,118799.99999999334
211,20.87919256441045
212,394535.4537353271
213,199853.00178866746
214,194682.45194665965
215,204472.61778277552
216,418876.45707467326
217,20.0
606,18.31395261412647
607,20.00216691699697
608,24.18537905104958
218,1165628.64202432
219,0.0
220,0.10843073831189744
221,0.47970026958126954
222,185005.31249810942
223,0.0
224,1.11919808799215
225,4.9513847235306505
275,74.55107341690507
960,0.0
961,0.0
2,1, 6,28, 0, 6, 0.00,60.00,Wednesday
7,18.191666666666666
8,15.891666666666666
9,16.695844645221246
10,0.011739357128063732
11,86.5
12,97541.66666666667
13,2.391666666666667
14,2591999.9930504933
136,0.0
210,118799.99999999334
211,20.792238490042717
212,1834636.8073363556
213,903680.9535270021
214,930955.8538093534
215,1989156.7527062756
216,0.0
217,20.12118829877439
606,18.343146014282507
607,20.183216655143635
608,24.625083884864768
218,830894.1857970627
219,0.0
220,0.10801874680512147
221,0.4782745531335694
222,0.0
223,101965.78418412984
224,0.6724505264639927
225,2.977624057640341
275,76.37968779479877
960,0.0
961,0.0
2,1, 6,28, 0, 7, 0.00,60.00,Wednesday
7,20.183333333333334
8,16.741666666666667
9,17.878637919373503
10,0.012379927723144475
11,80.5
12,97558.33333333333
13,2.308333333333333
14,2591999.9930504933
136,0.0
210,118799.99999999334
211,20.933943614955876
212,1912783.1786867352
213,604405.8936457643
214,1308377.2850409711
215,2395619.381136627
216,0.0
217,21.047141425549743
606,18.871996064877308
607,21.147442604772397
608,25.8568037591605
218,128813.9682416698
219,110131.38115659324
220,0.10719541424646811
221,0.4766834054706113
222,0.0
223,0.0
224,0.0
225,0.0
275,74.2990780000389
960,0.0
961,0.0
2,1, 6,28, 0, 8, 0.00,60.00,Wednesday
7,22.733333333333334
8,16.908333333333335
9,18.82589901242929
10,0.01252541435516679
11,69.83333333333333
12,97658.33333333333
13,2.975
14,2591999.9930504933
136,0.0
210,118799.99999999334
211,21.266160651718533
212,1831598.8714748905
213,313287.95591247134
214,1518310.9155624195
215,2549805.5538546434
216,0.0
217,21.627543393456666
606,19.364338178051923
607,21.792016704339144
608,26.85250829799808
218,0.0
219,507355.64821913873
220,0.10635626996526666
221,0.4737524104442144
222,0.0
223,0.0
224,0.0
225,0.0
275,74.53391805885644
960,0.0
961,0.0
2,1, 6,28, 0, 9, 0.00,60.00,Wednesday
7,25.183333333333337
8,16.7
9,19.452405483089787
10,0.012332299103246833
11,59.333333333333336
12,97700.0
13,4.183333333333334
14,2591999.9930504933
136,0.0
210,118799.99999999334
211,21.65919304793671
212,2201402.8845516318
213,431672.7316572956
214,1769730.1528943363
215,3396919.8148386087
216,0.0
217,22.251876396031523
606,19.895885909665473
607,22.443747665881034
608,27.69660171931525
218,0.0
219,829421.1190091565
220,0.10555980154588417
221,0.47118571097778666
222,0.0
223,0.0
224,0.0
225,0.0
275,73.1921390307113
960,0.0
961,0.0
2,1, 6,28, 0,10, 0.00,60.00,Wednesday
7,26.45
8,16.349999999999998
9,19.616891178865927
10,0.012025896395883787
11,53.666666666666664
12,97700.0
13,4.6000000000000005
14,2591999.9930504933
136,0.0
210,118799.99999999334
211,22.178218552150497
212,2738795.1861843746
213,753738.263844245
214,1985056.922340129
215,4423176.888559697
216,0.0
217,22.848878200340554
606,20.478474892891484
607,23.04739954013806
608,28.38432540780896
218,0.0
219,668826.9018402551
220,0.10516388026405338
221,0.47044615384012706
222,0.0
223,0.0
224,0.0
225,0.0
275,71.16043267179175
960,0.0
961,0.0
2,1, 6,28, 0,11, 0.00,60.00,Wednesday
7,27.34166666666667
8,16.099999999999998
9,19.77005480884804
10,0.011862982396568154
11,50.25
12,97700.0
13,4.308333333333334
14,2591999.9930504933
136,0.0
210,118799.99999999334
211,22.715540613321952
212,3023094.359002412
213,931605.0937501722
214,2091489.2652522393
215,5050531.907089727
216,0.0
217,23.404566149762378
606,21.040889275199962
607,23.593131036398464
608,28.914035658926817
218,0.0
219,669340.9879446686
220,0.10487886415097146
221,0.4700293082875994
222,0.0
223,0.0
224,0.0
225,0.0
275,68.65095508484544
960,0.0
961,0.0
2,1, 6,28, 0,12, 0.00,60.00,Wednesday
7,28.09166666666667
8,16.099999999999998
9,20.05351270767473
10,0.011967117057929319
11,48.416666666666664
12,97525.0
13,5.325
14,2591999.9930504933
136,0.0
210,118799.99999999334
211,23.241457988057416
212,3197516.1320910687
213,914908.0461669913
214,2282608.0859240773
215,5318737.473197834
216,0.0
217,23.930847218331454
606,21.584773501004054
607,24.113947298609883
608,29.426528587861466
218,0.0
219,871820.1673509413
220,0.10441316428534596
221,0.46961923324823635
222,0.0
223,0.0
224,0.0
225,0.0
275,66.42612011067025
960,0.0
961,0.0
2,1, 6,28, 0,13, 0.00,60.00,Wednesday
7,28.650000000000002
8,16.45
9,20.43213862003771
10,0.012262821354033648
11,48.0
12,97516.66666666667
13,4.9750000000000005
14,2591999.9930504933
136,0.0
210,118799.99999999334
211,23.711416826793496
212,3229656.379199725
213,935761.813480398
214,2293894.5657193274
215,5383595.799173266
216,0.0
217,24.374043019632836
606,22.058897369748824
607,24.567961584221166
608,29.949934608655543
218,0.0
219,1141626.79621078
220,0.10416243491643841
221,0.4693010532580179
222,0.0
223,0.0
224,0.0
225,0.0
275,65.14309941968249
960,0.0
961,0.0
2,1, 6,28, 0,14, 0.00,60.00,Wednesday
7,28.900000000000002
8,16.349999999999998
9,20.417041112960465
10,0.01213325242482513
11,46.833333333333336
12,97541.66666666667
13,4.741666666666666
14,2591999.9930504933
136,0.0
210,118799.99999999334
211,24.159863618820598
212,3458212.609922954
213,959621.2167793048
214,2498591.3931436487
215,5697683.2822989635
216,0.0
217,24.782250681726953
606,22.504611686667303
607,24.99355823570387
608,30.477757684263825
218,0.0
219,778810.2913634072
220,0.10412417223735342
221,0.4697529030670666
222,0.0
223,0.0
224,0.0
225,0.0
275,64.24571222228896
960,0.0
961,0.0
2,1, 6,28, 0,15, 0.00,60.00,Wednesday
7,28.900000000000002
8,16.099999999999998
9,20.258459333159063
10,0.011918420458543562
11,46.0
12,97500.0
13,4.2666666666666675
14,2591999.9930504933
136,0.0
210,118799.99999999334
211,24.566522722783997
212,3385500.745397251
213,741049.6883075136
214,2644451.057089738
215,5376304.640207528
216,0.0
217,24.998441608190802
606,22.85523306302665
607,25.19682160281029
608,30.604119273462747
218,0.0
219,555658.0584757696
220,0.10411496842062413
221,0.47017943708154686
222,0.0
223,0.0
224,0.0
225,0.0
275,62.92264895405807
960,0.0
961,0.0
2,1, 6,28, 0,16, 0.00,60.00,Wednesday
7,28.900000000000002
8,16.45
9,20.477256237405104
10,0.012234187292448457
11,47.166666666666664
12,97441.66666666667
13,4.825
14,2591999.9930504933
136,0.0
210,118799.99999999334
211,24.829483711977232
212,2834966.4455004265
213,509004.5664226951
214,2325961.8790777316
215,4444868.766735737
216,0.0
217,25.0
606,23.00353494685108
607,25.161114051050305
608,30.34866939827074
218,0.0
219,1221933.6525171928
220,0.10400088450211216
221,0.46973108563526206
222,0.0
223,0.0
224,0.0
225,0.0
275,61.48947429554345
960,0.0
961,0.0
2,1, 6,28, 0,17, 0.00,60.00,Wednesday
7,28.55
8,16.7
9,20.45387841598581
10,0.01236351998675751
11,48.583333333333336
12,97341.66666666667
13,5.991666666666667
14,2591999.9930504933
136,0.0
210,118799.99999999334
211,24.969802592152472
212,2951717.527789402
213,1137483.255207374
214,1814234.2725820276
215,4477012.71716965
216,0.0
217,25.0
606,23.07814604616631
607,25.135019423562664
608,30.168815794179977
218,0.0
219,1425516.082713503
220,0.10399347725503412
221,0.47003403911843505
222,0.0
223,0.0
224,0.0
225,0.0
275,60.490105583250774
960,0.0
961,0.0
2,1, 6,28, 0,18, 0.00,60.00,Wednesday
7,27.65833333333333
8,16.349999999999998
9,20.00740471392278
10,0.012120516138182491
11,50.166666666666664
12,97300.0
13,5.908333333333334
14,2591999.9930504933
136,0.0
210,118799.99999999334
211,25.002420647734052
212,2456871.384469301
213,1028732.6654670152
214,1428138.7190022857
215,3644192.1225164128
216,0.0
217,25.0
606,23.08656034419079
607,25.11622332165925
608,30.039320034941678
218,0.0
219,927448.1282018663
220,0.10429715468991561
221,0.4714996827010052
222,0.0
223,0.0
224,0.0
225,0.0
275,59.770254872056114
960,0.0
961,0.0
2,1, 6,28, 0,19, 0.00,60.00,Wednesday
7,26.90833333333333
8,15.808333333333332
9,19.53539932123397
10,0.011787005572060819
11,51.0
12,97300.0
13,5.058333333333334
14,2591999.9930504933
136,0.0
210,118799.99999999334
211,24.905381928974858
212,1617146.7120719403
213,762224.6235153434
214,854922.088556597
215,2323938.9434994976
216,0.0
217,25.0
606,23.017495492952804
607,25.106828764453326
608,29.974613298154356
218,0.0
219,312605.85497169435
220,0.10461277078071489
221,0.4728700048684802
222,0.0
223,0.0
224,0.0
225,0.0
275,59.410463319489075
960,0.0
961,0.0
2,1, 6,28, 0,20, 0.00,60.00,Wednesday
7,25.358333333333334
8,15.25
9,18.728501528549607
10,0.011358060891376143
11,53.916666666666664
12,97300.0
13,4.308333333333334
14,2591999.9930504933
136,0.0
210,118799.99999999334
211,24.672356841335173
212,649666.3390087195
213,359392.3780768505
214,290273.96093186905
215,768230.4911364104
216,56525.683088210506
217,24.95924442928833
606,22.84892539226412
607,25.06641173066998
608,29.93816153108472
218,841828.8311600415
219,0.0
220,0.10522771619036407
221,0.475588282697262
222,0.0
223,0.0
224,0.0
225,0.0
275,59.579513727980036
960,0.0
961,0.0
2,1, 6,28, 0,21, 0.00,60.00,Wednesday
7,23.758333333333336
8,14.65
9,17.800834018512276
10,0.010834038283315256
11,56.583333333333336
12,97241.66666666667
13,3.516666666666667
14,2591999.9930504933
136,0.0
210,118799.99999999334
211,24.289408346740036
212,0.0
213,0.0
214,0.0
215,0.0
216,403408.54986084654
217,24.531856377246214
606,22.42487105910787
607,24.628164371625292
608,29.454915857836955
218,1890702.9276920648
219,0.0
220,0.10581844032602498
221,0.4778152864901877
222,0.0
223,0.0
224,0.0
225,0.0
275,60.80043068038341
960,0.0
961,0.0
2,1, 6,28, 0,22, 0.00,60.00,Wednesday
7,21.724999999999998
8,14.4
9,17.02918036325953
10,0.010721095795109237
11,63.416666666666664
12,97200.0
13,2.8083333333333336
14,2591999.9930504933
136,0.0
210,118799.99999999334
211,23.80387608520826
212,0.0
213,0.0
214,0.0
215,0.0
216,622061.3309564411
217,23.23750852232412
606,21.528661987216264
607,23.21163240397036
608,27.416168407593926
218,1389088.8248829725
219,0.0
220,0.10652207204231605
221,0.47669364861625674
222,3405821.672966631
223,0.0
224,0.6842541720979985
225,3.054804050002326
275,61.0773840635431
960,0.0
961,0.0
2,1, 6,28, 0,23, 0.00,60.00,Wednesday
7,20.891666666666666
8,14.75
9,16.928119641161377
10,0.010942264721590983
11,68.0
12,97200.0
13,3.475
14,2591999.9930504933
136,0.0
210,118799.99999999334
211,23.266151740913312
212,0.0
213,0.0
214,0.0
215,0.0
216,627843.4274501314
217,22.475831876459505
606,20.853093649542668
607,22.3974030949179
608,26.343482305191163
218,768215.2232263712
219,0.0
220,0.10678595306587878
221,0.47778460595874184
222,359517.12394312955
223,0.0
224,0.5106212381214666
225,2.2852449669942207
275,61.982518331445355
960,0.0
961,0.0
2,1, 6,28, 0,24, 0.00,60.00,Wednesday
7,21.099999999999998
8,15.35
9,17.34797233510882
10,0.011382952298787413
11,69.75
12,97141.66666666667
13,4.391666666666667
14,2591999.9930504933
136,0.0
210,118799.99999999334
211,22.802410986559106
212,0.0
213,0.0
214,0.0
215,0.0
216,536340.646201479
217,22.522221911235977
606,20.6192533681724
607,22.496494077381527
608,26.70090144529026
218,616409.0789884529
219,0.0
220,0.10657208074074813
221,0.47781274124043976
222,39229.8444478338
223,27259.0743237822
224,0.2922274993258374
225,1.3097219974261105
275,63.82319053275567
960,0.0
961,0.0
2,2, 6,29, 0, 1, 0.00,60.00,Thursday
7,20.808333333333337
8,15.25
9,17.172829992301015
10,0.011284581297389629
11,70.41666666666667
12,97158.33333333333
13,4.308333333333334
14,2591999.9930504933
136,0.0
210,118799.99999999334
211,22.45288641890983
212,0.0
213,0.0
214,0.0
215,0.0
216,532760.0797265118
217,22.210958084682233
606,20.28651597001105
607,22.219630326604904
608,26.585622504009276
218,974220.0320458488
219,0.0
220,0.10671275109806493
221,0.47802948584862864
222,664754.1132621904
223,0.0
224,0.28561065608793096
225,1.2795683980041808
275,66.33271447272365
960,0.0
961,0.0
2,2, 6,29, 0, 2, 0.00,60.00,Thursday
7,19.98087362815
8,15.0443989539
9,16.81362064223003
10,0.011188156029148558
11,73.5
12,97141.66666666667
13,3.8083333333333336
14,2591999.9930504933
136,0.0
210,118799.99999999334
211,22.142060746476716
212,0.0
213,0.0
214,0.0
215,0.0
216,604669.0793450226
217,21.394519701655792
606,19.72189204886016
607,21.3748656113754
608,25.572862785298238
218,833264.4767758383
219,0.0
220,0.10701192719161727
221,0.4775953570175853
222,1271376.6090183477
223,0.0
224,0.7281746187012083
225,3.248571937782978
275,68.37473258532118
960,0.0
961,0.0
2,2, 6,29, 0, 3, 0.00,60.00,Thursday
7,19.327819187058335
8,15.470495920883332
9,16.881530003225702
10,0.011548837698886155
11,78.91666666666667
12,97100.0
13,3.3083333333333336
14,2591999.9930504933
136,0.0
210,118799.99999999334
211,21.80864185581639
212,0.0
213,0.0
214,0.0
215,0.0
216,642269.3937248675
217,20.96094706137562
606,19.338355031366373
607,20.971898663304533
608,25.278398727228346
218,717886.3158729838
219,0.0
220,0.1071437629201113
221,0.47817092811162953
222,4973.407956498766
223,77170.49219081104
224,0.6062064222927057
225,2.704862719055279
275,71.20728537073246
960,0.0
961,0.0
2,2, 6,29, 0, 4, 0.00,60.00,Thursday
7,18.61635466325833
8,15.796550753108333
9,16.871046732669956
10,0.011832450993728373
11,84.5
12,97100.0
13,3.391666666666667
14,2591999.9930504933
136,0.0
210,118799.99999999334
211,21.470359333305638
212,0.0
213,0.0
214,0.0
215,0.0
216,690764.4171258847
217,20.2634201794255
606,18.84062559635557
607,20.337991645725516
608,24.846920678433587
218,758295.1966512528
219,0.0
220,0.1073570459690039
221,0.4778520154383789
222,263191.36386844254
223,54206.38788335087
224,0.9220536430592658
225,4.104004267582822
275,76.31552253731577
960,0.0
961,0.0
2,2, 6,29, 0, 5, 0.00,60.00,Thursday
7,17.946431613875
8,15.872536855833332
9,16.714016796348663
10,0.011919419099333292
11,88.75
12,97100.0
13,3.6
14,2591999.9930504933
136,0.0
210,118799.99999999334
211,21.104822832637364
212,408345.0163672772
213,226149.4493924395
214,182195.56697483757
215,232938.1605413707
216,387393.18605311186
217,20.00000004989863
606,18.507298781715907
607,20.102169429171095
608,24.69288591089517
218,992498.789237953
219,0.0
220,0.10758928186265042
221,0.4789232712546374
222,693380.6433976837
223,0.0
224,0.996504523054503
225,4.435847293311089
275,78.38095475975915
960,0.0
961,0.0
2,2, 6,29, 0, 6, 0.00,60.00,Thursday
7,18.826334973166666
8,16.590094325033338
9,17.50638013911629
10,0.012547485034831085
11,88.25
12,97041.66666666667
13,3.6
14,2591999.9930504933
136,0.0
210,118799.99999999334
211,20.99252603203573
212,1934900.1549715565
213,977152.7186527508
214,957747.4363188057
215,2171589.8084029956
216,0.0
217,20.404821291559298
606,18.644086266238457
607,20.54761719757994
608,25.362075951991475
218,424472.6304061611
219,0.0
220,0.10709501157474799
221,0.4771346782375083
222,0.0
223,402343.48707746394
224,0.3802713156125277
225,1.6939076813032885
275,78.38657078489108
960,0.0
961,0.0
2,2, 6,29, 0, 7, 0.00,60.00,Thursday
7,20.956016402866666
8,17.41586329
9,18.7560276498817
10,0.013267102662831362
11,81.75
12,97058.33333333333
13,4.183333333333334
14,2591999.9930504933
136,0.0
210,118799.99999999334
211,21.170236465995103
212,1834549.917611612
213,578916.7769689857
214,1255633.140642626
215,2335850.574730938
216,0.0
217,21.380670192227115
606,19.229653420294728
607,21.591081422027198
608,26.833047495072197
218,7102.979976193397
219,263623.97538879554
220,0.10621731470033295
221,0.47591911342676974
222,0.0
223,0.0
224,0.0
225,0.0
275,77.23871444764399
960,0.0
961,0.0
2,2, 6,29, 0, 8, 0.00,60.00,Thursday
7,23.643760975441666
8,18.341483922699997
9,20.229398081187217
10,0.01413673377992332
11,73.91666666666667
12,97158.33333333333
13,4.308333333333334
14,2591999.9930504933
136,0.0
210,118799.99999999334
211,21.445916497232776
212,1782958.7179415396
213,329861.69469078846
214,1453097.0232507512
215,2581002.7170838136
216,0.0
217,21.901139405595185
606,19.666822631517547
607,22.191099135130127
608,27.873023825607515
218,0.0
219,1527508.2524420014
220,0.10522023188752315
221,0.47224146405616246
222,0.0
223,0.0
224,0.0
225,0.0
275,78.29196638629278
960,0.0
961,0.0
2,2, 6,29, 0, 9, 0.00,60.00,Thursday
7,25.93952052469167
8,18.875263113524998
9,21.29119983555901
10,0.01468069810110277
11,66.91666666666667
12,97200.0
13,4.741666666666666
14,2591999.9930504933
136,0.0
210,118799.99999999334
211,21.861913469022536
212,2186138.3312570797
213,443493.42429068754
214,1742644.906966392
215,3454271.5822210955
216,0.0
217,22.50585189767293
606,20.231070959906464
607,22.884495217318516
608,29.084927666668094
218,0.0
219,2091459.3754831846
220,0.10436753024991492
221,0.46969561567995904
222,0.0
223,0.0
224,0.0
225,0.0
275,79.37243901661547
960,0.0
961,0.0
2,2, 6,29, 0,10, 0.00,60.00,Thursday
7,27.426580328966665
8,18.658841147391666
9,21.58159661276281
10,0.014493008177375066
11,60.5
12,97141.66666666667
13,5.491666666666667
14,2591999.9930504933
136,0.0
210,118799.99999999334
211,22.384655895987635
212,2798674.4614594113
213,698517.5151749854
214,2100156.946284426
215,4643505.417726421
216,0.0
217,23.11464637019654
606,20.844163536997815
607,23.54655195618963
608,30.10979959684273
218,0.0
219,1720586.445881602
220,0.10381930508871685
221,0.4688385130291914
222,0.0
223,0.0
224,0.0
225,0.0
275,79.0807171947272
960,0.0
961,0.0
2,2, 6,29, 0,11, 0.00,60.00,Thursday
7,28.021559128133333
8,18.525525046183333
9,21.678961516285607
10,0.014395070705134827
11,58.0
12,97100.0
13,5.991666666666667
14,2591999.9930504933
136,0.0
210,118799.99999999334
211,22.94491044618802
212,3210371.0379213095
213,703644.5840155542
214,2506726.4539057557
215,5348961.451617373
216,0.0
217,23.683107504034037
606,21.44066782924318
607,24.13471899279055
608,30.886048639495073
218,0.0
219,1347601.0048340436
220,0.10358555110949404
221,0.469066800019961
222,0.0
223,0.0
224,0.0
225,0.0
275,77.65832614969344
960,0.0
961,0.0
2,2, 6,29, 0,12, 0.00,60.00,Thursday
7,28.799409140266672
8,18.250288578083335
9,21.829025187908645
10,0.014313492087300544
11,55.083333333333336
12,96983.33333333333
13,6.491666666666667
14,2591999.9930504933
136,0.0
210,118799.99999999334
211,23.460087172641053
212,3292588.9875967978
213,752952.6592447871
214,2539636.328352011
215,5480364.401744062
216,0.0
217,24.189740067963836
606,21.97469440618201
607,24.65064642820968
608,31.520703263634402
218,0.0
219,1189047.4095453094
220,0.10320798818020958
221,0.4688419867912584
222,0.0
223,0.0
224,0.0
225,0.0
275,76.07400502572402
960,0.0
961,0.0
2,2, 6,29, 0,13, 0.00,60.00,Thursday
7,29.68508274503333
8,17.783105599858335
9,21.76548977310226
10,0.013852381891209917
11,50.666666666666664
12,96958.33333333333
13,5.183333333333334
14,2591999.9930504933
136,0.0
210,118799.99999999334
211,23.929914226030096
212,3399579.2459780625
213,798683.5862930736
214,2600895.6596849887
215,5681817.022528911
216,0.0
217,24.672200434674494
606,22.461120592639503
607,25.126567740569115
608,32.0150938269306
218,0.0
219,841534.629307942
220,0.10295405679566512
221,0.4685819006923994
222,0.0
223,0.0
224,0.0
225,0.0
275,73.97585260359376
960,0.0
961,0.0
2,2, 6,29, 0,14, 0.00,60.00,Thursday
7,30.37853250029167
8,17.298950066166668
9,21.680423203541736
10,0.013428366859166272
11,47.25
12,97000.0
13,3.516666666666667
14,2591999.9930504933
136,0.0
210,118799.99999999334
211,24.398406881404394
212,3514358.0730809504
213,828576.873003935
214,2685781.200077015
215,5948756.85721385
216,0.0
217,25.12493582919326
606,22.994416941249
607,25.55474275945964
608,32.33943344115347
218,0.0
219,655595.6607479748
220,0.10283158751168424
221,0.4684183749595728
222,0.0
223,0.0
224,0.0
225,0.0
275,71.30136223882319
960,0.0
961,0.0
2,2, 6,29, 0,15, 0.00,60.00,Thursday
7,31.054711158775003
8,17.122796038666667
9,21.86275219048378
10,0.0134169849088381
11,45.416666666666664
12,97000.0
13,3.6833333333333336
14,2591999.9930504933
136,0.0
210,118799.99999999334
211,24.84889987207863
212,3275298.2976279003
213,585810.2015266214
214,2689488.0961012784
215,5467342.033992364
216,0.0
217,25.566836066750543
606,23.510882166683132
607,25.97329006248476
608,32.64360402608836
218,0.0
219,918999.1376247375
220,0.10260485682055896
221,0.4679587524930775
222,0.0
223,0.0
224,0.0
225,0.0
275,68.71461064481895
960,0.0
961,0.0
2,2, 6,29, 0,16, 0.00,60.00,Thursday
7,31.746905017883336
8,17.196284361725002
9,22.088735388125087
10,0.01347692486504102
11,43.833333333333336
12,96941.66666666667
13,5.033333333333333
14,2591999.9930504933
136,0.0
210,118799.99999999334
211,25.230915535247874
212,3258141.1787557905
213,1040391.5770891667
214,2217749.6016666233
215,5388810.975143499
216,0.0
217,25.97055644088036
606,23.96288863158433
607,26.36785686278061
608,32.99540164846502
218,0.0
219,1162607.9981708927
220,0.10230072978115455
221,0.46744507984230416
222,0.0
223,0.0
224,0.0
225,0.0
275,66.81788510770161
960,0.0
961,0.0
2,2, 6,29, 0,17, 0.00,60.00,Thursday
7,31.7800672696
8,17.269389338116667
9,22.183720151146257
10,0.013614023712217233
11,44.166666666666664
12,96900.0
13,5.058333333333334
14,2591999.9930504933
136,0.0
210,118799.99999999334
211,25.501509850547222
212,2753699.2679363545
213,848442.0199604301
214,1905257.2479759243
215,4556675.708779772
216,0.0
217,26.23993656996042
606,24.276395378648314
607,26.63625555272323
608,33.262438261557605
218,0.0
219,1203000.678826388
220,0.10222353339800976
221,0.4677169832553223
222,0.0
223,0.0
224,0.0
225,0.0
275,65.74862949745058
960,0.0
961,0.0
2,2, 6,29, 0,18, 0.00,60.00,Thursday
7,31.370818016616667
8,17.342085404566667
9,22.145054008093737
10,0.013748381856476817
11,45.583333333333336
12,96783.33333333333
13,4.016666666666667
14,2591999.9930504933
136,0.0
210,118799.99999999334
211,25.658263205717713
212,2639137.3540121196
213,1291266.936864197
214,1347870.417147922
215,4264271.6395270275
216,0.0
217,26.363874835987485
606,24.452277345186435
607,26.766681344817574
608,33.436003924477745
218,0.0
219,1033252.17545021
220,0.10221603906049405
221,0.46849687988993455
222,0.0
223,0.0
224,0.0
225,0.0
275,65.52243075354075
960,0.0
961,0.0
2,2, 6,29, 0,19, 0.00,60.00,Thursday
7,30.302444288766665
8,17.764347140866672
9,22.15576759776714
10,0.014216489394475118
11,50.083333333333336
12,96758.33333333333
13,3.3083333333333336
14,2591999.9930504933
136,0.0
210,118799.99999999334
211,25.69952711253747
212,2044473.3229670227
213,1220100.2235250333
214,824373.0994419893
215,3254022.247458809
216,0.0
217,26.3501428700733
606,24.49488741756001
607,26.768518086954646
608,33.53879680356554
218,0.0
219,929603.5289087947
220,0.10247418693133425
221,0.46988400981959116
222,0.0
223,0.0
224,0.0
225,0.0
275,66.17126965474965
960,0.0
961,0.0
2,2, 6,29, 0,20, 0.00,60.00,Thursday
7,28.441566725916662
8,18.086149278666667
9,21.868466180946715
10,0.01455666382390159
11,57.083333333333336
12,96800.0
13,3.391666666666667
14,2591999.9930504933
136,0.0
210,118799.99999999334
211,25.5222061889682
212,573180.7985589595
213,314968.4636605185
214,258212.33489844104
215,908254.1084032143
216,2304.2236590899624
217,26.069850366957592
606,24.280522867070943
607,26.521280646097182
608,33.49593014247332
218,15624.901194234539
219,328539.36156010686
220,0.10309591169201093
221,0.47229200048600245
222,0.0
223,0.0
224,0.0
225,0.0
275,68.51066885955095
960,0.0
961,0.0
2,2, 6,29, 0,21, 0.00,60.00,Thursday
7,27.304806260641666
8,18.157466710266668
9,21.58322967854879
10,0.014607720009861741
11,61.166666666666664
12,96800.0
13,3.891666666666667
14,2591999.9930504933
136,0.0
210,118799.99999999334
211,25.147843272794734
212,0.0
213,0.0
214,0.0
215,0.0
216,9089.827448400423
217,25.637059806806096
606,23.836345215384753
607,26.11549709858566
608,33.234945478089955
218,161533.62485754042
219,0.0
220,0.10347729607050593
221,0.4735044636091786
222,0.0
223,0.0
224,0.0
225,0.0
275,71.20247574421488
960,0.0
961,0.0
2,2, 6,29, 0,22, 0.00,60.00,Thursday
7,26.54211746756667
8,18.22827449755833
9,21.42276500296993
10,0.014690795003400687
11,64.33333333333333
12,96800.0
13,4.391666666666667
14,2591999.9930504933
136,0.0
210,118799.99999999334
211,24.73991330844514
212,0.0
213,0.0
214,0.0
215,0.0
216,59671.76711359237
217,25.231185849350982
606,23.361973938256398
607,25.73086831949678
608,32.94473100833245
218,378101.1514466141
219,0.0
220,0.10372716370029895
221,0.47410460461985404
222,0.0
223,0.0
224,0.0
225,0.0
275,73.57053177402692
960,0.0
961,0.0
2,2, 6,29, 0,23, 0.00,60.00,Thursday
7,26.211788579283333