Program Version,EnergyPlus, Version 23.2.0-7636e6b3e9, YMD=2024.11.10 12:46
1,5,Environment Title[],Latitude[deg],Longitude[deg],Time Zone[],Elevation[m]
2,8,Day of Simulation[],Month[],Day of Month[],DST Indicator[1=yes 0=no],Hour[],StartMinute[],EndMinute[],DayType
3,5,Cumulative Day of Simulation[],Month[],Day of Month[],DST Indicator[1=yes 0=no],DayType  ! When Daily Report Variables Requested
4,2,Cumulative Days of Simulation[],Month[]  ! When Monthly Report Variables Requested
5,1,Cumulative Days of Simulation[] ! When Run Period Report Variables Requested
6,1,Calendar Year of Simulation[] ! When Annual Report Variables Requested
7,1,Environment,Site Outdoor Air Drybulb Temperature [C] !Hourly
8,1,Environment,Site Outdoor Air Dewpoint Temperature [C] !Hourly
9,1,Environment,Site Outdoor Air Wetbulb Temperature [C] !Hourly
10,1,Environment,Site Outdoor Air Humidity Ratio [kgWater/kgDryAir] !Hourly
11,1,Environment,Site Outdoor Air Relative Humidity [%] !Hourly
12,1,Environment,Site Outdoor Air Barometric Pressure [Pa] !Hourly
13,1,Environment,Site Wind Speed [m/s] !Hourly
150,1,WHOLEHOUSE,Zone People Total Heating Energy [J] !Hourly
260,1,WHOLEHOUSE,Zone Lights Total Heating Energy [J] !Hourly
557,1,WHOLEHOUSE,Zone Electric Equipment Total Heating Energy [J] !Hourly
558,1,WHOLEHOUSE,Zone Mean Radiant Temperature [C] !Hourly
559,1,WHOLEHOUSE,Zone Windows Total Transmitted Solar Radiation Energy [J] !Hourly
560,1,WHOLEHOUSE,Zone Exterior Windows Total Transmitted Beam Solar Radiation Energy [J] !Hourly
561,1,WHOLEHOUSE,Zone Exterior Windows Total Transmitted Diffuse Solar Radiation Energy [J] !Hourly
562,1,WHOLEHOUSE,Zone Windows Total Heat Gain Energy [J] !Hourly
563,1,WHOLEHOUSE,Zone Windows Total Heat Loss Energy [J] !Hourly
564,1,WHOLEHOUSE,Zone Mean Air Temperature [C] !Hourly
565,1,WHOLEHOUSE,Zone Infiltration Total Heat Loss Energy [J] !Hourly
566,1,WHOLEHOUSE,Zone Infiltration Total Heat Gain Energy [J] !Hourly
567,1,WHOLEHOUSE,Zone Infiltration Standard Density Volume Flow Rate [m3/s] !Hourly
568,1,WHOLEHOUSE,Zone Infiltration Air Change Rate [ach] !Hourly
569,1,WHOLEHOUSE,Zone Ventilation Total Heat Loss Energy [J] !Hourly
570,1,WHOLEHOUSE,Zone Ventilation Total Heat Gain Energy [J] !Hourly
571,1,WHOLEHOUSE,Zone Ventilation Standard Density Volume Flow Rate [m3/s] !Hourly
572,1,WHOLEHOUSE,Zone Ventilation Air Change Rate [ach] !Hourly
623,1,WHOLEHOUSE,Zone Air Relative Humidity [%] !Hourly
995,1,WHOLEHOUSE OCCUPANTS,Zone Thermal Comfort Pierce Model Standard Effective Temperature [C] !Hourly
996,1,WHOLEHOUSE,Zone Heat Index [C] !Hourly
997,1,WHOLEHOUSE,Zone Humidity Index [] !Hourly
1319,1,WHOLEHOUSE,Zone Mechanical Ventilation Standard Density Volume Flow Rate [m3/s] !Hourly
1320,1,WHOLEHOUSE,Zone Mechanical Ventilation Air Changes per Hour [ach] !Hourly
End of Data Dictionary
1,ANNUAL,  43.90, -92.50,  -6.00, 398.00
2,1, 6,28, 0, 1, 0.00,60.00,Wednesday
7,19.725
8,15.6
9,17.043647136419608
10,0.011542849996785716
11,77.25
12,97412.5
13,3.6624999999999996
150,2592000.0
260,0.0
557,147945.20547945204
558,22.832680439670277
559,0.0
560,0.0
561,0.0
562,0.0
563,763426.9835951409
564,22.96361330900504
995,21.119754335483584
996,23.572607583244974
997,31.020277993773774
565,1281184.9242893886
566,0.0
567,0.02170326672268051
568,8.02945952552265
569,0.0
570,0.0
571,0.0
572,0.0
623,86.44126165980798
1319,0.0
1320,0.0
2,1, 6,28, 0, 2, 0.00,60.00,Wednesday
7,18.525000000000002
8,15.225
9,16.380930429098
10,0.011219158024863384
11,81.0
12,97537.5
13,3.1
150,2592000.0
260,0.0
557,147945.20547945204
558,22.4716246299994
559,0.0
560,0.0
561,0.0
562,0.0
563,897129.8153111996
564,22.589274386897113
995,20.73424377283368
996,23.20410659609683
997,30.59623041973053
565,1329614.184929951
566,0.0
567,0.020359731311259878
568,7.511634997460938
569,0.0
570,0.0
571,0.0
572,0.0
623,88.09848057272339
1319,0.0
1320,0.0
2,1, 6,28, 0, 3, 0.00,60.00,Wednesday
7,18.3
8,15.0
9,16.168571145145677
10,0.011062970109378662
11,81.0
12,97500.0
13,2.475
150,2592000.0
260,0.0
557,147945.20547945204
558,22.144591858060057
559,0.0
560,0.0
561,0.0
562,0.0
563,890030.1555118782
564,22.302724888544653
995,20.427397614578986
996,22.959150754345153
997,30.48421913331116
565,1190473.016976663
566,0.0
567,0.017347387141547713
568,6.398443560133197
569,0.0
570,0.0
571,0.0
572,0.0
623,90.78885273410357
1319,0.0
1320,0.0
2,1, 6,28, 0, 4, 0.00,60.00,Wednesday
7,17.9875
8,15.0
9,16.089924792595962
10,0.011091722095601947
11,82.875
12,97562.5
13,2.4125
150,2592000.0
260,0.0
557,147945.20547945204
558,21.85812869177009
559,0.0
560,0.0
561,0.0
562,0.0
563,895979.9633950654
564,22.021616075436043
995,20.1479100920872
996,22.7304185430628
997,30.434143024557805
565,1223325.7610803433
566,0.0
567,0.017145741316288765
568,6.316523942766852
569,0.0
570,0.0
571,0.0
572,0.0
623,93.87135208829075
1319,0.0
1320,0.0
2,1, 6,28, 0, 5, 0.00,60.00,Wednesday
7,17.425
8,15.375000000000002
9,16.10050540663302
10,0.01133380818041604
11,87.75
12,97600.0
13,2.2875
150,2592000.0
260,0.0
557,147945.20547945204
558,21.615973798482887
559,446286.4372340975
560,220938.1965507991
561,225348.24068329844
562,187611.15921340935
563,484578.5439189932
564,21.78914229832648
995,19.891312254734178
996,22.493242732881285
997,30.106399271358217
565,1175251.4872994788
566,0.0
567,0.017028636749801374
568,6.265067932582252
569,0.0
570,0.0
571,0.0
572,0.0
623,94.5815993297849
1319,0.0
1320,0.0
2,1, 6,28, 0, 6, 0.00,60.00,Wednesday
7,18.262499999999996
8,15.912500000000001
9,16.735464683019785
10,0.011758530798105824
11,86.25
12,97537.5
13,2.4125
150,2592000.0
260,0.0
557,147945.20547945204
558,21.55372602692222
559,1888319.267146483
560,884051.2578695454
561,1004268.0092769379
562,1928766.173063277
563,0.0
564,21.790380396407805
995,19.898526654083245
996,22.589812215903386
997,30.65425561113915
565,1103697.8902930317
566,0.0
567,0.016249383647907505
568,5.988368766918294
569,0.0
570,0.0
571,0.0
572,0.0
623,98.22784688805591
1319,0.0
1320,0.0
2,1, 6,28, 0, 7, 0.00,60.00,Wednesday
7,20.275
8,16.787499999999998
9,17.934214481526254
10,0.01241176351558118
11,80.25
12,97562.5
13,2.2875
150,2592000.0
260,0.0
557,147945.20547945204
558,21.64086170108108
559,1945333.9244509696
560,505156.28029395663
561,1440177.6441570132
562,2343520.8779016915
563,0.0
564,21.928058177336425
995,20.041247421862426
996,22.78753066173674
997,31.18340949794903
565,748835.4720593959
566,0.0
567,0.012831545399043178
568,4.733181618100034
569,0.0
570,0.0
571,0.0
572,0.0
623,100.0
1319,0.0
1320,0.0
2,1, 6,28, 0, 8, 0.00,60.00,Wednesday
7,22.85
8,16.8875
9,18.850595866760543
10,0.012508596234181246
11,69.25
12,97662.5
13,3.0375
150,2592000.0
260,0.0
557,147945.20547945204
558,21.860965048697132
559,2017078.7809402118
560,273975.88408045913
561,1743102.8968597525
562,2746916.53021296
563,0.0
564,22.216879392560408
995,20.312223115797472
996,23.092136476251824
997,31.662941852095912
565,736748.4158130006
566,0.0
567,0.015038350889624415
568,5.548724252874708
569,0.0
570,0.0
571,0.0
572,0.0
623,99.49839276561005
1319,0.0
1320,0.0
2,1, 6,28, 0, 9, 0.00,60.00,Wednesday
7,25.275
8,16.7
9,19.479314073931135
10,0.01233032669698492
11,59.0
12,97700.0
13,4.225
150,2592000.0
260,0.0
557,147945.20547945204
558,22.20059472204195
559,2544787.3791962583
560,442022.6249165186
561,2102764.7542797397
562,3834766.004875896
563,0.0
564,22.656404675923937
995,20.639309962164454
996,23.360635757492307
997,31.21536337124112
565,720775.0486406756
566,0.0
567,0.023010346282035955
568,8.485537943309469
569,0.0
570,0.0
571,0.0
572,0.0
623,91.26517245014365
1319,0.0
1320,0.0
2,1, 6,28, 0,10, 0.00,60.00,Wednesday
7,26.474999999999998
8,16.325000000000003
9,19.609840433093407
10,0.012005918042426289
11,53.5
12,97700.0
13,4.6
150,2592000.0
260,0.0
557,147945.20547945204
558,22.659975043807513
559,3178119.0261639105
560,766654.673679798
561,2411464.3524841126
562,5006833.583353337
563,0.0
564,23.134721246594903
995,21.07698098662045
996,23.723528730166496
997,31.10428896737711
565,637981.7211218125
566,0.0
567,0.025636671128492286
568,9.459190618831386
569,0.0
570,0.0
571,0.0
572,0.0
623,85.01284353280388
1319,0.0
1320,0.0
2,1, 6,28, 0,11, 0.00,60.00,Wednesday
7,27.3875
8,16.1
9,19.785816582927026
10,0.011865379500343835
11,50.125
12,97700.0
13,4.2875
150,2592000.0
260,0.0
557,147945.20547945204
558,23.151808961542493
559,3513600.819241818
560,933416.8048915348
561,2580184.0143502825
562,5715632.756787719
563,0.0
564,23.61201934898928
995,21.580347954800104
996,24.196231137518673
997,31.651369249358915
565,628693.2539053471
566,0.0
567,0.024766368020713077
568,9.15387383404742
569,0.0
570,0.0
571,0.0
572,0.0
623,83.00888801137938
1319,0.0
1320,0.0
2,1, 6,28, 0,12, 0.00,60.00,Wednesday
7,28.1125
8,16.1
9,20.062597239516208
10,0.011972983571280234
11,48.375
12,97512.5
13,5.4125000000000005
150,2592000.0
260,0.0
557,147945.20547945204
558,23.636413857370663
559,3687923.0279393955
560,914672.7118588733
561,2773250.316080522
562,5978400.899138533
563,0.0
564,24.07781962658413
995,22.050308549769063
996,24.607531691258096
997,31.84453376725469
565,596779.7473689644
566,0.0
567,0.0300550223320451
568,11.143298941288664
569,0.0
570,0.0
571,0.0
572,0.0
623,79.13774858782918
1319,0.0
1320,0.0
2,1, 6,28, 0,13, 0.00,60.00,Wednesday
7,28.674999999999997
8,16.474999999999998
9,20.45271870054225
10,0.012279874097668843
11,48.0
12,97525.0
13,4.887499999999999
150,2592000.0
260,0.0
557,147945.20547945204
558,24.07108226811414
559,3727691.77805345
560,936941.7921409992
561,2790749.98591245
562,6068530.920643091
563,0.0
564,24.46367871301921
995,22.522250251850995
996,25.044774734877222
997,32.63760046097097
565,580229.6331368993
566,0.0
567,0.027851757675330234
568,10.345031921715389
569,0.0
570,0.0
571,0.0
572,0.0
623,79.6278866170418
1319,0.0
1320,0.0
2,1, 6,28, 0,14, 0.00,60.00,Wednesday
7,28.9
8,16.325000000000003
9,20.401214497443497
10,0.012111770367457392
11,46.75
12,97537.5
13,4.7875000000000005
150,2592000.0
260,0.0
557,147945.20547945204
558,24.49105323288743
559,3916790.7392052757
560,958469.1589466549
561,2958321.580258622
562,6317718.250972232
563,0.0
564,24.855916282562966
995,23.06684583797073
996,25.468602106020903
997,33.30554991348023
565,733300.4063900718
566,0.0
567,0.02717801312841494
568,10.11234329867939
569,0.0
570,0.0
571,0.0
572,0.0
623,79.33552236942418
1319,0.0
1320,0.0
2,1, 6,28, 0,15, 0.00,60.00,Wednesday
7,28.9
8,16.1
9,20.25845933315906
10,0.011918420458543562
11,46.0
12,97500.0
13,4.2
150,2592000.0
260,0.0
557,147945.20547945204
558,24.86691018594164
559,3703944.7745653884
560,726250.8191907052
561,2977693.9553746837
562,5801047.215365996
563,0.0
564,24.999905074504017
995,23.172739041124963
996,25.34591661622986
997,31.625617982491587
565,186786.8888608489
566,0.0
567,0.02422017625439514
568,8.990085702231186
569,0.0
570,0.0
571,0.0
572,0.0
623,68.57101833395288
1319,0.0
1320,0.0
2,1, 6,28, 0,16, 0.00,60.00,Wednesday
7,28.9
8,16.474999999999998
9,20.49284347642349
10,0.012256759745263808
11,47.25
12,97437.5
13,4.9125000000000005
150,2592000.0
260,0.0
557,147945.20547945204
558,25.092534137956797
559,3062537.7684749155
560,516494.83725693845
561,2546042.931217977
562,4742419.404389396
563,0.0
564,25.000000673432755
995,23.169172817636714
996,25.153739601705666
997,30.29787535618066
565,0.0
566,355014.65690349543
567,0.02736282733392361
568,10.137653293479355
569,0.0
570,0.0
571,0.0
572,0.0
623,61.20702020581589
1319,0.0
1320,0.0
2,1, 6,28, 0,17, 0.00,60.00,Wednesday
7,28.525000000000002
8,16.7
9,20.44103977518569
10,0.012356583361865351
11,48.625
12,97337.5
13,6.0125
150,2592000.0
260,0.0
557,147945.20547945204
558,25.213208859031354
559,3152024.309394018
560,1138542.0222424422
561,2013482.287151576
562,4732646.092863046
563,0.0
564,25.000000772036298
995,23.19430781286482
996,25.08049576789167
997,29.79330329266535
565,0.0
566,576451.932381937
567,0.03176134455083378
568,11.768704893934778
569,0.0
570,0.0
571,0.0
572,0.0
623,58.40193305474723
1319,0.0
1320,0.0
2,1, 6,28, 0,18, 0.00,60.00,Wednesday
7,27.6125
8,16.325000000000003
9,19.984492300036493
10,0.012107968529723404
11,50.25
12,97300.0
13,5.8875
150,2592000.0
260,0.0
557,147945.20547945204
558,25.220065094287886
559,2490178.23098623
560,952829.7065228034
561,1537348.5244634266
562,3662852.2066211
563,0.0
564,25.00000067024432
995,23.19248284476866
996,25.07082387977112
997,29.726729316749676
565,0.0
566,375911.25568323815
567,0.03002675277573514
568,11.128921900909614
569,0.0
570,0.0
571,0.0
572,0.0
623,58.03152460647348
1319,0.0
1320,0.0
2,1, 6,28, 0,19, 0.00,60.00,Wednesday
7,26.8875
8,15.787500000000001
9,19.518149022422357
10,0.011772298404814594
11,51.0
12,97300.0
13,5.012499999999999
150,2592000.0
260,0.0
557,147945.20547945204
558,25.09464439559212
559,1613595.9246603204
560,717913.5717585157
561,895682.3529018048
562,2294179.1668145633
563,0.0
564,25.000000486100937
995,23.171584489409327
996,25.150564142199766
997,30.276015522084332
565,59417.518578088755
566,42099.31672288167
567,0.02517024151623191
568,9.338175500706079
569,0.0
570,0.0
571,0.0
572,0.0
623,61.085414754887495
1319,0.0
1320,0.0
2,1, 6,28, 0,20, 0.00,60.00,Wednesday
7,25.262499999999996
8,15.225
9,18.682077763397537
10,0.011336963681646963
11,54.125
12,97300.0
13,4.2875
150,2592000.0
260,0.0
557,147945.20547945204
558,24.837312426670625
559,581117.3826947768
560,316790.03995425516
561,264327.3427405216
562,675594.6755461436
563,91184.71250363086
564,24.97155660826726
995,23.291395124809284
996,25.475674724297086
997,32.68792817732432
565,842432.6590878151
566,0.0
567,0.020198436725847112
568,7.526284452459841
569,0.0
570,0.0
571,0.0
572,0.0
623,74.73473232692722
1319,0.0
1320,0.0
2,1, 6,28, 0,21, 0.00,60.00,Wednesday
7,23.712500000000002
8,14.624999999999998
9,17.76812555479964
10,0.01081221563443498
11,56.625
12,97237.5
13,3.4749999999999996
150,2592000.0
260,0.0
557,147945.20547945204
558,24.437962387168405
559,0.0
560,0.0
561,0.0
562,0.0
563,433518.3947735779
564,24.572860045302516
995,22.978500417268425
996,25.29602817293611
997,33.72444280230762
565,1212155.5078977407
566,0.0
567,0.017170358051993326
568,6.411090524543774
569,0.0
570,0.0
571,0.0
572,0.0
623,84.65080471459618
1319,0.0
1320,0.0
2,1, 6,28, 0,22, 0.00,60.00,Wednesday
7,21.612500000000004
8,14.4
9,16.994617480204003
10,0.010725306281823489
11,63.875
12,97200.0
13,2.7875
150,2592000.0
260,0.0
557,147945.20547945204
558,23.991161153293522
559,0.0
560,0.0
561,0.0
562,0.0
563,689966.4903162804
564,24.107894759830828
995,22.393925429517296
996,24.851337234449947
997,33.28920171133067
565,1302884.6359638826
566,0.0
567,0.016478749416326974
568,6.14598695283289
569,0.0
570,0.0
571,0.0
572,0.0
623,87.2079871818055
1319,0.0
1320,0.0
2,1, 6,28, 0,23, 0.00,60.00,Wednesday
7,20.9125
8,14.775
9,16.946811753774035
10,0.010956530011867274
11,68.0
12,97200.0
13,3.5374999999999996
150,2592000.0
260,0.0
557,147945.20547945204
558,23.551856603016475
559,0.0
560,0.0
561,0.0
562,0.0
563,711080.4145569806
564,23.696156092152712
995,21.883904201130733
996,24.315601410663
997,31.979140134842073
565,1345571.5073385988
566,0.0
567,0.020318873869106
568,7.554760911341349
569,0.0
570,0.0
571,0.0
572,0.0
623,84.03603141980918
1319,0.0
1320,0.0
2,1, 6,28, 0,24, 0.00,60.00,Wednesday
7,21.1
8,15.375000000000002
9,17.36456533905428
10,0.011404221159235572
11,69.875
12,97137.5
13,4.4125
150,2592000.0
260,0.0
557,147945.20547945204
558,23.167612684346807
559,0.0
560,0.0
561,0.0
562,0.0
563,614801.5774364371
564,23.351879126321272
995,21.472081210359693
996,23.901098638979565
997,31.118752421359495
565,1255853.7910261615
566,0.0
567,0.023518172512762683
568,8.732194487471624
569,0.0
570,0.0
571,0.0
572,0.0
623,82.66504000100224
1319,0.0
1320,0.0
2,2, 6,29, 0, 1, 0.00,60.00,Thursday
7,20.813496325760866
8,15.239047916955542
9,17.17204676921114
10,0.011280691108234181
11,70.375
12,97162.5
13,4.2875
150,2592000.0
260,0.0
557,147945.20547945204
558,22.785420072056382
559,0.0
560,0.0
561,0.0
562,0.0
563,591621.3339833964
564,22.055300311849752
995,20.501450970297807
996,22.244998854938643
997,27.533756629445108
565,509720.4589192247
566,0.0
567,0.021564226500906482
568,7.892411144474915
569,1021936.0109395734
570,90498.46999552965
571,1.5943332539620965
572,578.5308365545737
623,73.85902078286503
1319,0.0
1320,0.0
2,2, 6,29, 0, 2, 0.00,60.00,Thursday
7,20.00596602341858
8,15.08428105436995
9,16.868372718753896
10,0.01124530014996094
11,73.75
12,97137.5
13,3.7874999999999996
150,2592000.0
260,0.0
557,147945.20547945204
558,22.37028451279663
559,0.0
560,0.0
561,0.0
562,0.0
563,637974.5589502489
564,21.44907999852208
995,19.944805925077272
996,21.56584710195452
997,26.418582159319875
565,354159.3516636909
566,0.0
567,0.019456098076570012
568,7.081994683030903
569,1012930.4158642741
570,12281.793225142854
571,1.5504804471565845
572,561.3880035774124
623,73.3838914135199
1319,0.0
1320,0.0
2,2, 6,29, 0, 3, 0.00,60.00,Thursday
7,19.382046688211833
8,15.534167393638327
9,16.957629734204524
10,0.011619826864287034
11,79.125
12,97100.0
13,3.2875
150,2592000.0
260,0.0
557,147945.20547945204
558,21.917258454751703
559,0.0
560,0.0
561,0.0
562,0.0
563,661183.0538345947
564,20.991323565651626
995,19.488458303431035
996,21.166559964394263
997,26.223014907635545
565,321669.2214762551
566,0.0
567,0.01741206143018861
568,6.332493708872294
569,1077045.582972604
570,0.0
571,1.5135510058255441
572,547.5127194840102
623,77.37576080217686
1319,0.0
1320,0.0
2,2, 6,29, 0, 4, 0.00,60.00,Thursday
7,18.64552435645685
8,15.833998075543057
9,16.928005973264476
10,0.011890339958168065
11,84.75
12,97100.0
13,3.4125
150,2592000.0
260,0.0
557,147945.20547945204
558,21.52379740265517
559,0.0
560,0.0
561,0.0
562,0.0
563,710113.5996893918
564,20.447417190259216
995,19.021167321508294
996,20.675602243656158
997,25.879031791566852
565,338271.98843854765
566,0.0
567,0.018305741079546987
568,6.644952336739413
569,1223767.4230759551
570,0.0
571,1.5822954985675555
572,571.0578334409537
623,81.48729683677627
1319,0.0
1320,0.0
2,2, 6,29, 0, 5, 0.00,60.00,Thursday
7,17.996350605535373
8,15.908746933427894
9,16.776333007482062
10,0.011974829059642447
11,88.875
12,97100.0
13,3.6
150,2592000.0
260,0.0
557,147945.20547945204
558,21.11821785582896
559,461340.0578848242
560,250009.01188643056
561,211331.04599839356
562,281574.11744515994
563,366859.5930559195
564,20.67296507239055
995,18.930142008728616
996,21.02054589234345
997,26.780973610833062
565,607800.2672219891
566,0.0
567,0.020290729696532832
568,7.398166520664929
569,632146.3876846631
570,0.0
571,0.8097778977709065
572,291.8381968325626
623,85.19682425713242
1319,0.0
1320,0.0
2,2, 6,29, 0, 6, 0.00,60.00,Thursday
7,18.971977065777157
8,16.670887829248663
9,17.632642805125815
10,0.01264666683381732
11,88.125
12,97037.5
13,3.6
150,2592000.0
260,0.0
557,147945.20547945204
558,21.192936774646498
559,1990533.5652257681
560,952540.1657749907
561,1037993.3994507774
562,2210000.851767421
563,0.0
564,21.47423838501778
995,19.529472688355494
996,22.23341357603423
997,30.00898988737776
565,1026367.6226381123
566,0.0
567,0.020066117247835857
568,7.421352650633824
569,0.0
570,0.0
571,0.0
572,0.0
623,97.89686030907264
1319,0.0
1320,0.0
2,2, 6,29, 0, 7, 0.00,60.00,Thursday
7,21.122355437373724
8,17.470394662713172
9,18.86638779439771
10,0.0133431308697417
11,81.375
12,97062.5
13,4.225
150,2592000.0
260,0.0
557,147945.20547945204
558,21.37518046476491
559,1862647.5595747626
560,482283.17822383577
561,1380364.381350927
562,2366783.314186875
563,0.0
564,21.69960666075586
995,19.77845337133846
996,22.53623399349811
997,30.745816351921192
565,843721.8127751776
566,0.0
567,0.020186959671725024
568,7.477122393904368
569,0.0
570,0.0
571,0.0
572,0.0
623,100.0
1319,0.0
1320,0.0
2,2, 6,29, 0, 8, 0.00,60.00,Thursday
7,23.83493750726779
8,18.419741380407913
9,20.364672265179582
10,0.014245778882084208
11,73.625
12,97162.5
13,4.2875
150,2592000.0
260,0.0
557,147945.20547945204
558,21.647395309053415
559,1979841.8659283612
560,289143.36074690183
561,1690698.5051814597
562,2866419.9488750584
563,0.0
564,22.067216185217646
995,20.127546884160804
996,22.94060447040608
997,31.45156865296329
565,579696.3675171058
566,0.0
567,0.02199975112554678
568,8.155196112237475
569,0.0
570,0.0
571,0.0
572,0.0
623,100.0
1319,0.0
1320,0.0
2,2, 6,29, 0, 9, 0.00,60.00,Thursday
7,26.084675166012314
8,18.906401984908346
9,21.37637557414731
10,0.014744450104475485
11,66.625
12,97200.0
13,4.7875000000000005
150,2592000.0
260,0.0
557,147945.20547945204
558,22.06428748271193
559,2535493.076185518
560,453243.3150118732
561,2082249.7611736448
562,3961062.5218196074
563,0.0
564,22.56672780305448
995,20.624982924363326
996,23.47745323132458
997,32.3449130530387
565,489387.80636341794
566,0.0
567,0.026537250220952473
568,9.857458271749106
569,0.0
570,0.0
571,0.0
572,0.0
623,99.51690992205074
1319,0.0
1320,0.0
2,2, 6,29, 0,10, 0.00,60.00,Thursday
7,27.546520424593304
8,18.667850543869683
9,21.64450324885808
10,0.014536541156906974
11,60.25
12,97137.5
13,5.5125
150,2592000.0
260,0.0
557,147945.20547945204
558,22.581154607672104
559,3228480.6330570616
560,705320.88224688
561,2523159.7508101817
562,5271632.050234025
563,0.0
564,23.1342182095577
995,21.16049403734046
996,23.970827551876148
997,32.642956250043994
565,421968.94921813457
566,0.0
567,0.030885975918274106
568,11.496465261144161
569,0.0
570,0.0
571,0.0
572,0.0
623,94.50505400963424
1319,0.0
1320,0.0
2,2, 6,29, 0,11, 0.00,60.00,Thursday
7,28.095425431210558
8,18.554061199094818
9,21.742551692376367
10,0.014458582331592078
11,58.0
12,97100.0
13,6.0125
150,2592000.0
260,0.0
557,147945.20547945204
558,23.13401672405252
559,3650064.9820202566
560,702581.2685471959
561,2947483.71347306
562,5977520.393224423
563,0.0
564,23.667195997551104
995,21.70628840561308
996,24.454346548188454
997,33.019028395446334
565,416073.6598037604
566,0.0
567,0.033041177488407854
568,12.322021263620329
569,0.0
570,0.0
571,0.0
572,0.0
623,90.56969599123475
1319,0.0
1320,0.0
2,2, 6,29, 0,12, 0.00,60.00,Thursday
7,28.918842488010366
8,18.25250817557638
9,21.893096553657617
10,0.014360755996837362
11,54.875
12,96975.0
13,6.5125
150,2592000.0
260,0.0
557,147945.20547945204
558,23.644536863779514
559,3748747.9035184924
560,755239.6936513187
561,2993508.209867174
562,6136523.724413575
563,0.0
564,24.158829028207826
995,22.20884146279004
996,24.905618677805073
997,33.37312046776009
565,381329.9346461819
566,0.0
567,0.03558247798344453
568,13.306122651356421
569,0.0
570,0.0
571,0.0
572,0.0
623,87.14110945101362
1319,0.0
1320,0.0
2,2, 6,29, 0,13, 0.00,60.00,Thursday
7,29.77922406776442
8,17.788165790509723
9,21.812276071148297
10,0.013881912496162833
11,50.5
12,96962.5
13,5.074999999999999
150,2592000.0
260,0.0
557,147945.20547945204
558,24.106734635598414
559,3871880.666213583
560,801330.3734913782
561,3070550.2927222056
562,6369825.154609553
563,0.0
564,24.561981265129752
995,22.75214204523774
996,25.315861944043334
997,33.9209167978973
565,454746.62923462264
566,0.0
567,0.029733110853903368
568,11.137677123110967
569,0.0
570,0.0
571,0.0
572,0.0
623,85.86869349619334
1319,0.0
1320,0.0
2,2, 6,29, 0,14, 0.00,60.00,Thursday
7,30.476522830489053
8,17.298508462273595
9,21.735505091034874
10,0.01346907952078635
11,47.125
12,97000.0
13,3.4749999999999996
150,2592000.0
260,0.0
557,147945.20547945204
558,24.56174571217499
559,3943045.8557233894
560,823135.7859338552
561,3119910.0697895335
562,6577056.065498194
563,0.0
564,24.9735464208989
995,23.45479503554818
996,25.81011793765778
997,34.99994749499402
565,621408.1268518597
566,0.0
567,0.02304159409764102
568,8.650314261700936
569,0.0
570,0.0
571,0.0
572,0.0
623,87.4593696681737
1319,0.0
1320,0.0
2,2, 6,29, 0,15, 0.00,60.00,Thursday
7,31.148191639998984
8,17.146010719375518
9,21.929432689575897
10,0.013477499040556246
11,45.375
12,97000.0
13,3.7249999999999996
150,2592000.0
260,0.0
557,147945.20547945204
558,24.984535869517032
559,3565769.462017173
560,588863.484315547
561,2976905.977701626
562,5895006.014323277
563,0.0
564,25.381636074306734
995,24.02322815698108
996,26.20879963528364
997,35.439187825060344
565,639202.0658933836
566,0.0
567,0.024449564808371495
568,9.192287483871961
569,0.0
570,0.0
571,0.0
572,0.0
623,85.5361684336853
1319,0.0
1320,0.0
2,2, 6,29, 0,16, 0.00,60.00,Thursday
7,31.84418358038983
8,17.218147209358573
9,22.148628995022648
10,0.013527317707252809
11,43.75
12,96937.5
13,5.1000000000000005
150,2592000.0
260,0.0
557,147945.20547945204
558,25.34971370459685
559,3546670.8881898005
560,1048054.4295225001
561,2498616.4586672997
562,5816764.654730282
563,0.0
564,25.77567982313332
995,24.382634210445964
996,26.499201682035967
997,35.166121621827706
565,495693.41446718376
566,0.0
567,0.03081231136094754
568,11.593245277235216
569,0.0
570,0.0
571,0.0
572,0.0
623,80.05780803959081
1319,0.0
1320,0.0
2,2, 6,29, 0,17, 0.00,60.00,Thursday
7,31.826951972443574
8,17.289892707666624
9,22.2385159917159
10,0.013677377220690144
11,44.25
12,96900.0
13,5.012499999999999
150,2592000.0
260,0.0
557,147945.20547945204
558,25.5914047979388
559,2919728.281777739
560,836500.2133967177
561,2083228.0683810213
562,4804444.561226444
563,0.0
564,25.980082334131126
995,24.70260801337304
996,26.716035426962122
997,35.498445728964846
565,515336.46944876213
566,0.0
567,0.03002785047177899
568,11.312562974371408
569,0.0
570,0.0
571,0.0
572,0.0
623,79.75107972238696
1319,0.0
1320,0.0
2,2, 6,29, 0,18, 0.00,60.00,Thursday
7,31.421450389951236
8,17.361222126464806
9,22.19409659049691
10,0.013802971485254284
11,45.625
12,96775.0
13,3.9749999999999996
150,2592000.0
260,0.0
557,147945.20547945204
558,25.71974717959055
559,2689278.0131624565
560,1223673.771216749
561,1465604.2419457072
562,4349841.288945271
563,0.0
564,26.06575582699453
995,25.056251832025634
996,26.91434248524115
997,36.434795584791416
565,713078.4058372243
566,0.0
567,0.024775431450661512
568,9.36333768913888
569,0.0
570,0.0
571,0.0
572,0.0
623,83.73659438265734
1319,0.0
1320,0.0
2,2, 6,29, 0,19, 0.00,60.00,Thursday
7,30.302632675947148
8,17.80711052341215
9,22.212181424347445
10,0.014301175962902622
11,50.375
12,96762.5
13,3.2875
150,2592000.0
260,0.0
557,147945.20547945204
558,25.727620249234526
559,2018929.1720718108
560,1148194.8632692974
561,870734.3088025136
562,3233055.7245471627
563,0.0
564,26.0247496137996
995,25.392325914162313
996,27.041287803101646
997,37.63100388077585
565,882889.7958434742
566,0.0
567,0.020290867006777707
568,7.686307707943588
569,0.0
570,0.0
571,0.0
572,0.0
623,90.32582575020757
1319,0.0
1320,0.0
2,2, 6,29, 0,20, 0.00,60.00,Thursday
7,28.420452958849022
8,18.10253311038343
9,21.90138121648938
10,0.014614887447425545
11,57.375
12,96800.0
13,3.4125
150,2592000.0
260,0.0
557,147945.20547945204
558,25.517109588403105
559,502788.334229102
560,265941.3123022835
561,236847.02192681844
562,816336.8693307202
563,0.0
564,25.750667837045977
995,25.30918795531838
996,26.88968338658126
997,38.172409406127485
565,1073016.6449555093
566,0.0
567,0.01867014662485369
568,7.073894077081971
569,0.0
570,0.0
571,0.0
572,0.0
623,96.06612294670701
1319,0.0
1320,0.0
2,2, 6,29, 0,21, 0.00,60.00,Thursday
7,27.34986566849822
8,18.17246526213698
9,21.636366985041494
10,0.01466768457987467
11,61.25
12,96800.0
13,3.9124999999999996
150,2592000.0
260,0.0
557,147945.20547945204
558,25.12763894158763
559,0.0
560,0.0
561,0.0
562,6060.953635432024
563,0.0
564,25.331003020586177
995,24.592158026875282
996,26.433151133404774
997,37.33814134624189
565,1090085.0907791061
566,0.0
567,0.020038366458939336
568,7.57566087802705
569,0.0
570,0.0
571,0.0
572,0.0
623,96.26140551846701
1319,0.0
1320,0.0
2,2, 6,29, 0,22, 0.00,60.00,Thursday
7,26.565825552094687
8,18.24188252492565
9,21.470274814554344
10,0.014750935560361656
11,64.5
12,96800.0
13,4.4125
150,2592000.0
260,0.0
557,147945.20547945204
558,24.713878638367895
559,0.0
560,0.0
561,0.0
562,0.0
563,47477.04040891159
564,24.924893292360423
995,23.848898142789928
996,25.971275426234524
997,36.39728513803225
565,1056966.3029004275
566,0.0
567,0.021801075133601328
568,8.22280413455814
569,0.0
570,0.0
571,0.0
572,0.0
623,95.68100102869134
1319,0.0
1320,0.0
2,2, 6,29, 0,23, 0.00,60.00,Thursday
7,26.28078769002082
8,18.310760625047696
9,21.454377520481
10,0.014847108832563535
11,66.0
12,96800.0
13,5.2875000000000005
150,2592000.0
260,0.0
557,147945.20547945204
558,24.340456625676175
559,0.0
560,0.0
561,0.0
562,12898.569183878335
563,13626.529919881954
564,24.60413870039435
995,23.20285242949675
996,25.569572459722014
997,35.41348890051504
565,1001769.3871615384
566,0.0
567,0.025811858306959173
568,9.712904384305595
569,0.0
570,0.0
571,0.0
572,0.0
623,93.8092723557192
1319,0.0
1320,0.0
2,2, 6,29, 0,24, 0.00,60.00,Thursday
7,26.40720751154891
8,18.6915754773348
9,21.857924883423358
10,0.015407251871189936
11,67.875
12,96737.5
13,5.3875
150,2592000.0
260,0.0
557,147945.20547945204
558,24.0261660777692
559,0.0
560,0.0
561,0.0
562,90877.43584646072
563,0.0
564,24.35272751346593
995,22.789525801920902
996,25.340174553970744
997,35.22801705034708
565,867922.1178321326
566,0.0
567,0.02673886859128974
568,10.061429280670817
569,0.0
570,0.0
571,0.0
572,0.0
623,95.61518554222957
1319,0.0
1320,0.0
2,3, 6,30, 0, 1, 0.00,60.00,Friday
7,26.220040810426553
8,18.94680319357414
9,22.053076506661906
10,0.01577509173912171
11,70.25
12,96762.5
13,5.2
150,2592000.0
260,0.0
557,147945.20547945204
558,23.763285151485256
559,0.0
560,0.0
561,0.0
562,102236.76461638956
563,0.0
564,24.122589507802527
995,22.471594061403422
996,25.186292666737792
997,35.426666703552314
565,875383.6534013062
566,0.0
567,0.025975416430093615
568,9.77185545076689
569,0.0
570,0.0
571,0.0
572,0.0
623,99.41701222721306
1319,0.0
1320,0.0
2,3, 6,30, 0, 2, 0.00,60.00,Friday
7,26.15674376033458
8,19.388920090861525
9,22.29793778540821
10,0.016168202676192265
11,72.25
12,96800.0
13,5.5125
150,2592000.0
260,0.0
557,147945.20547945204
558,23.540580941499577
559,0.0
560,0.0
561,0.0
562,137233.2058478164
563,0.0
564,23.929976724451762
995,22.201012051906407
996,24.989641063563614
997,35.13593373971139
565,761369.4859066021
566,0.0
567,0.027563730711082847