Program Version,EnergyPlus, Version 23.2.0-7636e6b3e9, YMD=2024.11.10 12:46
1,5,Environment Title[],Latitude[deg],Longitude[deg],Time Zone[],Elevation[m]
2,8,Day of Simulation[],Month[],Day of Month[],DST Indicator[1=yes 0=no],Hour[],StartMinute[],EndMinute[],DayType
3,5,Cumulative Day of Simulation[],Month[],Day of Month[],DST Indicator[1=yes 0=no],DayType  ! When Daily Report Variables Requested
4,2,Cumulative Days of Simulation[],Month[]  ! When Monthly Report Variables Requested
5,1,Cumulative Days of Simulation[] ! When Run Period Report Variables Requested
6,1,Calendar Year of Simulation[] ! When Annual Report Variables Requested
7,1,Environment,Site Outdoor Air Drybulb Temperature [C] !Hourly
8,1,Environment,Site Outdoor Air Dewpoint Temperature [C] !Hourly
9,1,Environment,Site Outdoor Air Wetbulb Temperature [C] !Hourly
10,1,Environment,Site Outdoor Air Humidity Ratio [kgWater/kgDryAir] !Hourly
11,1,Environment,Site Outdoor Air Relative Humidity [%] !Hourly
12,1,Environment,Site Outdoor Air Barometric Pressure [Pa] !Hourly
13,1,Environment,Site Wind Speed [m/s] !Hourly
14,1,WHOLEHOUSE_01D06913,Zone People Total Heating Energy [J] !Hourly
136,1,WHOLEHOUSE_01D06913,Zone Lights Total Heating Energy [J] !Hourly
210,1,WHOLEHOUSE_01D06913,Zone Electric Equipment Total Heating Energy [J] !Hourly
211,1,WHOLEHOUSE_01D06913,Zone Mean Radiant Temperature [C] !Hourly
212,1,WHOLEHOUSE_01D06913_SPACE,Zone Windows Total Transmitted Solar Radiation Energy [J] !Hourly
213,1,WHOLEHOUSE_01D06913_SPACE,Zone Exterior Windows Total Transmitted Beam Solar Radiation Energy [J] !Hourly
214,1,WHOLEHOUSE_01D06913_SPACE,Zone Exterior Windows Total Transmitted Diffuse Solar Radiation Energy [J] !Hourly
215,1,WHOLEHOUSE_01D06913,Zone Windows Total Heat Gain Energy [J] !Hourly
216,1,WHOLEHOUSE_01D06913,Zone Windows Total Heat Loss Energy [J] !Hourly
217,1,WHOLEHOUSE_01D06913,Zone Mean Air Temperature [C] !Hourly
218,1,WHOLEHOUSE_01D06913,Zone Infiltration Total Heat Loss Energy [J] !Hourly
219,1,WHOLEHOUSE_01D06913,Zone Infiltration Total Heat Gain Energy [J] !Hourly
220,1,WHOLEHOUSE_01D06913,Zone Infiltration Standard Density Volume Flow Rate [m3/s] !Hourly
221,1,WHOLEHOUSE_01D06913,Zone Infiltration Air Change Rate [ach] !Hourly
222,1,WHOLEHOUSE_01D06913,Zone Ventilation Total Heat Loss Energy [J] !Hourly
223,1,WHOLEHOUSE_01D06913,Zone Ventilation Total Heat Gain Energy [J] !Hourly
224,1,WHOLEHOUSE_01D06913,Zone Ventilation Standard Density Volume Flow Rate [m3/s] !Hourly
225,1,WHOLEHOUSE_01D06913,Zone Ventilation Air Change Rate [ach] !Hourly
275,1,WHOLEHOUSE_01D06913,Zone Air Relative Humidity [%] !Hourly
606,1,WHOLEHOUSE_01D06913_SPACE RV2024_RESILIENCE_PEOPLE,Zone Thermal Comfort Pierce Model Standard Effective Temperature [C] !Hourly
607,1,WHOLEHOUSE_01D06913,Zone Heat Index [C] !Hourly
608,1,WHOLEHOUSE_01D06913,Zone Humidity Index [] !Hourly
960,1,WHOLEHOUSE_01D06913,Zone Mechanical Ventilation Standard Density Volume Flow Rate [m3/s] !Hourly
961,1,WHOLEHOUSE_01D06913,Zone Mechanical Ventilation Air Changes per Hour [ach] !Hourly
End of Data Dictionary
1,RUN PERIOD 1,  43.90, -92.50,  -6.00, 398.00
2,1, 1,26, 0, 1, 0.00,60.00,Thursday
7,-14.450000000000001
8,-16.400000000000002
9,-14.852504393087
10,0.0009540834279937642
11,83.5
12,96516.66666666667
13,7.6000000000000005
14,2591999.9930504933
136,0.0
210,118799.99999999334
211,16.87874572030016
212,0.0
213,0.0
214,0.0
215,0.0
216,5357492.761690931
217,20.0
606,21.354499941227104
607,18.247304127062005
608,15.551193644980016
218,17769108.82855705
219,0.0
220,0.12246379137169355
221,0.539018375925233
222,21437624.612205915
223,0.0
224,4.650493228653121
225,20.466456179093743
275,7.343562313012797
960,0.0
961,0.0
2,1, 1,26, 0, 2, 0.00,60.00,Thursday
7,-17.55
8,-19.400000000000002
9,-17.861160404584314
10,0.0007012801653795932
11,83.91666666666667
12,97100.0
13,4.308333333333334
14,2591999.9930504933
136,0.0
210,118799.99999999334
211,16.66108335004297
212,0.0
213,0.0
214,0.0
215,0.0
216,5626968.581457185
217,20.0
606,21.217410220538437
607,18.185795224935685
608,15.232494577029302
218,19546149.401113637
219,0.0
220,0.12473811512637199
221,0.5454320171294337
222,18415127.215301674
223,0.0
224,4.945667157020307
225,21.625506880817227
275,4.987902231579255
960,0.0
961,0.0
2,1, 1,26, 0, 3, 0.00,60.00,Thursday
7,-17.45
8,-19.400000000000002
9,-17.780064595000034
10,0.0007012992685842561
11,83.08333333333333
12,97041.66666666667
13,4.391666666666667
14,2591999.9930504933
136,0.0
210,118799.99999999334
211,16.47314767578708
212,0.0
213,0.0
214,0.0
215,0.0
216,5595472.525337974
217,20.0
606,21.123897193453292
607,18.180243524749738
608,15.20287500035043
218,19433760.325013883
219,0.0
220,0.12461444536403064
221,0.5451911303444431
222,16701909.46170058
223,0.0
224,4.934183361354716
225,21.587153972923034
275,4.775283926585755
960,0.0
961,0.0
2,1, 1,26, 0, 4, 0.00,60.00,Thursday
7,-16.908333333333335
8,-18.758333333333333
9,-17.235233763953882
10,0.0007464526281452984
11,83.91666666666667
12,96941.66666666667
13,6.116666666666666
14,2591999.9930504933
136,0.0
210,118799.99999999334
211,16.326221797648287
212,0.0
213,0.0
214,0.0
215,0.0
216,5664361.653737801
217,20.0
606,21.054973752001715
607,18.18497413529855
608,15.228141545720433
218,19070585.97089457
219,0.0
220,0.12421386050154783
221,0.5440236051189776
222,15422228.205999488
223,0.0
224,4.882622647783291
225,21.384572583221043
275,4.956456245476222
960,0.0
961,0.0
2,1, 1,26, 0, 5, 0.00,60.00,Thursday
7,-16.991666666666667
8,-18.941666666666666
9,-17.333470728908207
10,0.000733587921923266
11,83.08333333333333
12,96900.0
13,7.2
14,2591999.9930504933
136,0.0
210,118799.99999999334
211,16.212437879252416
212,0.0
213,0.0
214,0.0
215,0.0
216,5718973.300786066
217,20.0
606,21.00078117007046
607,18.187316757296767
608,15.240633698966958
218,19146346.66874912
219,0.0
220,0.12420340762210645
221,0.5442239034071458
222,16841903.347553253
223,0.0
224,4.887717925834811
225,21.416584712219038
275,5.046173683705926
960,0.0
961,0.0
2,1, 1,26, 0, 6, 0.00,60.00,Thursday
7,-16.908333333333335
8,-19.108333333333334
9,-17.295028686288624
10,0.0007201814674300822
11,81.0
12,96958.33333333333
13,6.325
14,2591999.9930504933
136,0.0
210,118799.99999999334
211,16.13420804890129
212,0.0
213,0.0
214,0.0
215,0.0
216,5608744.133925033
217,20.0
606,20.960276241017812
607,18.182737671484777
608,15.216222160845028
218,19090973.526229214
219,0.0
220,0.12424041326738228
221,0.5440351852411706
222,16104011.75908173
223,0.0
224,4.883660656518365
225,21.38502783105871
275,4.870804439842507
960,0.0
961,0.0
2,1, 1,26, 0, 7, 0.00,60.00,Thursday
7,-16.349999999999998
8,-18.55
9,-16.753626869989183
10,0.0007585067643661528
11,81.0
12,97000.0
13,5.991666666666667
14,2591999.9930504933
136,0.0
210,118799.99999999334
211,16.085708788738117
212,0.0
213,0.0
214,0.0
215,0.0
216,5493956.648957217
217,20.0
606,20.938276088144853
607,18.18812907327404
608,15.244964828152021
218,18759889.798009533
219,0.0
220,0.12401597285137851
221,0.5428458042435773
222,15335255.055414606
223,0.0
224,4.837823906503491
225,21.17624234537325
275,5.077283657303636
960,0.0
961,0.0
2,1, 1,26, 0, 8, 0.00,60.00,Thursday
7,-16.099999999999998
8,-18.008333333333333
9,-16.460904928122766
10,0.0007991873455290068
11,83.33333333333333
12,96941.66666666667
13,6.783333333333334
14,2591999.9930504933
136,0.0
210,118799.99999999334
211,16.051547008603148
212,40201.12107438872
213,0.0
214,40201.12107438872
215,0.0
216,5445167.249087843
217,20.0
606,20.924915078659392
607,18.19509648284445
608,15.281916020771204
218,18601596.82114017
219,0.0
220,0.12381270804602922
221,0.5423175453190651
222,15150768.339191861
223,0.0
224,4.813261361448917
225,21.082780012772634
275,5.3441206195746345
960,0.0
961,0.0
2,1, 1,26, 0, 9, 0.00,60.00,Thursday
7,-16.099999999999998
8,-18.091666666666665
9,-16.475711392539466
10,0.0007935989642883534
11,82.66666666666667
12,96841.66666666667
13,7.2
14,2591999.9930504933
136,0.0
210,118799.99999999334
211,16.036551864792088
212,260122.07140693552
213,0.0
214,260122.07140693552
215,0.0
216,5152491.58807045
217,20.0
606,20.91924547412623
607,18.19662764157881
608,15.290010895879234
218,18602170.0861677
219,0.0
220,0.12368609786430529
221,0.5423308203491857
222,15904336.422652438
223,0.0
224,4.80833934734168
225,21.083296084107793
275,5.402760741315876
960,0.0
961,0.0
2,1, 1,26, 0,10, 0.00,60.00,Thursday
7,-15.808333333333332
8,-18.008333333333333
9,-16.22970777069173
10,0.0007993892798716547
11,81.0
12,96800.0
13,7.2
14,2591999.9930504933
136,0.0
210,118799.99999999334
211,16.05560108802901
212,624289.5921528762
213,0.0
214,624289.5921528762
215,0.0
216,4585720.163571033
217,19.999999999999996
606,20.92863736088285
607,18.19579027850478
608,15.285587743239597
218,18409986.767610256
219,0.0
220,0.12349165056073332
221,0.5417073920361621
222,15180402.602185896
223,0.0
224,4.781341703852076
225,20.973791117500845
275,5.370691517204281
960,0.0
961,0.0
2,1, 1,26, 0,11, 0.00,60.00,Thursday
7,-14.608333333333334
8,-16.808333333333334
9,-15.05547845961406
10,0.000901728977255394
11,81.58333333333333
12,96683.33333333333
13,8.425000000000002
14,2591999.9930504933
136,0.0
210,118799.99999999334
211,16.11144903789908
212,950817.9207220769
213,0.0
214,950817.9207220769
215,0.0
216,3999780.3464625636
217,20.0
606,20.962115871149976
607,18.208937192374965
608,15.35460240234849
218,17657845.52656768
219,0.0
220,0.12275071132110948
221,0.5391728898911968
222,13113723.839957334
223,0.0
224,4.67230734363131
225,20.5226509347288
275,5.874190346275128
960,0.0
961,0.0
2,1, 1,26, 0,12, 0.00,60.00,Thursday
7,-13.9
8,-16.45
9,-14.436160032372205
10,0.0009337330999279391
11,79.08333333333333
12,96483.33333333333
13,9.299999999999999
14,2591999.9930504933
136,0.0
210,118799.99999999334
211,16.18394886052162
212,1087459.910705806
213,0.0
214,1087459.910705806
215,0.0
216,3748135.6170395003
217,19.999999999999996
606,21.003846343288092
607,18.22000078731781
608,15.412287304480992
218,17255908.192219008
219,0.0
220,0.1221552381372818
221,0.5377271050556914
222,14267458.57387059
223,0.0
224,4.601840794671804
225,20.25729363864932
275,6.297902493022543
960,0.0
961,0.0
2,1, 1,26, 0,13, 0.00,60.00,Thursday
7,-13.9
8,-16.349999999999998
9,-14.415489013805669
10,0.0009455702389743092
11,79.91666666666667
12,96283.33333333333
13,9.008333333333335
14,2591999.9930504933
136,0.0
210,118799.99999999334
211,16.225922276177048
212,832020.4775469264
213,0.0
214,832020.4775469264
215,0.0
216,4097093.2646199777
217,20.0
606,21.02635419840637
607,18.21967511430667
608,15.410594123358052
218,17205182.455642667
219,0.0
220,0.12189971039133153
221,0.5377169734856363
222,13672649.137145467
223,0.0
224,4.592214535303679
225,20.256911961423647
275,6.285429909617089
960,0.0
961,0.0
2,1, 1,26, 0,14, 0.00,60.00,Thursday
7,-13.258333333333333
8,-15.108333333333334
9,-13.678845140175092
10,0.0010605640747982583
11,84.33333333333333
12,96141.66666666667
13,9.383333333333333
14,2591999.9930504933
136,0.0
210,118799.99999999334
211,16.244659201893516
212,726682.3640704383
213,0.0
214,726682.3640704383
215,0.0
216,4156512.523088121
217,20.000000000000004
606,21.0430379205069
607,18.235253414691332
608,15.490879966682243
218,16784585.71946085
219,0.0
220,0.12139765194500719
221,0.5363703380044833
222,12146788.832570186
223,0.0
224,4.529792082113677
225,20.013912496634234
275,6.882045669029441
960,0.0
961,0.0
2,1, 1,26, 0,15, 0.00,60.00,Thursday
7,-12.450000000000001
8,-14.108333333333334
9,-12.848748175257114
10,0.00116519624253496
11,86.0
12,95983.33333333333
13,10.091666666666669
14,2591999.9930504933
136,0.0
210,118799.99999999334
211,16.250451008613428
212,549390.6247396236
213,0.0
214,549390.6247396236
215,0.0
216,4303279.968295169
217,20.0
606,21.055225704772056
607,18.25503896635968
608,15.591823100647858
218,16314313.901859911
219,0.0
220,0.12080152399362347
221,0.5347173069980412
222,12205824.88853522
223,0.0
224,4.452445906038949
225,19.7083270481164
275,7.639790201008992
960,0.0
961,0.0
2,1, 1,26, 0,16, 0.00,60.00,Thursday
7,-11.908333333333331
8,-13.549999999999999
9,-12.305359631834634
10,0.0012338511244439014
11,86.58333333333333
12,95841.66666666667
13,11.525
14,2591999.9930504933
136,0.0
210,118799.99999999334
211,16.238336473931934
212,319046.1366090612
213,0.0
214,319046.1366090612
215,0.0
216,4593508.718195026
217,20.0
606,21.05553613545057
607,18.267158876411568
608,15.653034600040113
218,15989963.659668414
219,0.0
220,0.12035982026919649
221,0.5336117852133281
222,12030518.12456777
223,0.0
224,4.398980174014741
225,19.502737159837526
275,8.103956968953538
960,0.0
961,0.0
2,1, 1,26, 0,17, 0.00,60.00,Thursday
7,-11.35
8,-13.008333333333335
9,-11.76793580546474
10,0.0012954694148762922
11,86.41666666666667
12,95800.0
13,11.758333333333333
14,2591999.9930504933
136,0.0
210,118799.99999999334
211,16.214657947326135
212,131661.02900098168
213,0.0
214,131661.02900098168
215,0.0
216,4767711.240272719
217,19.999999999999996
606,21.04867627451666
607,18.27817019827369
608,15.708289065439592
218,15674069.321460335
219,0.0
220,0.12003904675245954
221,0.5324765868926219
222,11831468.379929818
223,0.0
224,4.34869395878739
225,19.290202765039123
275,8.525667167928425
960,0.0
961,0.0
2,1, 1,26, 0,18, 0.00,60.00,Thursday
7,-11.1
8,-12.450000000000001
9,-11.446442927379273
10,0.0013632183396946522
11,88.91666666666667
12,95800.0
13,10.424999999999999
14,2591999.9930504933
136,0.0
210,118799.99999999334
211,16.16841846726766
212,0.0
213,0.0
214,0.0
215,0.0
216,5320605.851812063
217,20.0
606,21.030360816628704
607,18.28923721382351
608,15.763486019334033
218,15530525.010549864
219,0.0
220,0.119911441545881
221,0.5319657166589089
222,11538415.414133213
223,0.0
224,4.326722319266899
225,19.194731625941127
275,8.949510316645199
960,0.0
961,0.0
2,1, 1,26, 0,19, 0.00,60.00,Thursday
7,-11.1
8,-12.200000000000001
9,-11.38122167067437
10,0.0013960817674049644
11,91.0
12,95741.66666666667
13,10.383333333333333
14,2591999.9930504933
136,0.0
210,118799.99999999334
211,16.138408617990194
212,0.0
213,0.0
214,0.0
215,0.0
216,5072062.297267074
217,20.0
606,21.01931034369861
607,18.29692068035261
608,15.801645093173036
218,15537384.84211641
219,0.0
220,0.11983210875533266
221,0.531976705814215
222,12115785.813704982
223,0.0
224,4.323859782122068
225,19.195128143762272
275,9.243770736908377
960,0.0
961,0.0
2,1, 1,26, 0,20, 0.00,60.00,Thursday
7,-11.1
8,-12.550000000000002
9,-11.472881879308341
10,0.001351828587501393
11,88.08333333333333
12,95700.0
13,11.091666666666669
14,2591999.9930504933
136,0.0
210,118799.99999999334
211,16.11155818283289
212,0.0
213,0.0
214,0.0
215,0.0
216,5331650.117008901
217,20.0
606,21.004863509025625
607,18.292294019190134
608,15.778681971829364
218,15552851.97401216
219,0.0
220,0.11978846180633318
221,0.5319919079460091
222,12918443.033559944
223,0.0
224,4.322284884631309
225,19.195676676930475
275,9.066579458345487
960,0.0
961,0.0
2,1, 1,26, 0,21, 0.00,60.00,Thursday
7,-10.808333333333332
8,-12.450000000000001
9,-11.236757875160732
10,0.0013649492857181935
11,86.58333333333333
12,95641.66666666667
13,11.591666666666669
14,2591999.9930504933
136,0.0
210,118799.99999999334
211,16.092796817845386
212,0.0
213,0.0
214,0.0
215,0.0
216,5054445.014415764
217,20.0
606,20.995525934216303
607,18.290192711185927
608,15.76824423996463
218,15350107.611678425
219,0.0
220,0.11957989035155858
221,0.5313796718638931
222,11621489.640087226
223,0.0
224,4.29447435264589
225,19.08343165810768
275,8.986103832652462
960,0.0
961,0.0
2,1, 1,26, 0,22, 0.00,60.00,Thursday
7,-10.891666666666666
8,-12.200000000000001
9,-11.230585199038138
10,0.0013982451304017747
11,89.33333333333333
12,95600.0
13,12.15
14,2591999.9930504933
136,0.0
210,118799.99999999334
211,16.098467061399457
212,0.0
213,0.0
214,0.0
215,0.0
216,4871671.629041241
217,20.0
606,21.00138880428145
607,18.2970084048408
608,15.802079774323323
218,15398919.771735657
219,0.0
220,0.1195593655703206
221,0.5315546500092356
222,11990878.701117188
223,0.0
224,4.299537588028884
225,19.11551814835637
275,9.247130398158177
960,0.0
961,0.0
2,1, 1,26, 0,23, 0.00,60.00,Thursday
7,-10.808333333333332
8,-11.908333333333331
9,-11.095281258656392
10,0.0014344135093453494
11,91.0
12,95658.33333333333
13,11.758333333333333
14,2591999.9930504933
136,0.0
210,118799.99999999334
211,16.092944061730755
212,0.0
213,0.0
214,0.0
215,0.0
216,4841599.153219785
217,20.0
606,20.99997273840985
607,18.30197456846565
608,15.826647167384529
218,15352000.693367628
219,0.0
220,0.11958736054684467
221,0.5313790003680857
222,11587663.276160626
223,0.0
224,4.294736654722608
225,19.083407289619032
275,9.43732389868442
960,0.0
961,0.0
2,1, 1,26, 0,24, 0.00,60.00,Thursday
7,-10.6
8,-11.991666666666665
9,-10.96659081700012
10,0.0014231210180533135
11,88.66666666666667
12,95700.0
13,11.591666666666669
14,2591999.9930504933
136,0.0
210,118799.99999999334
211,16.09022005939631
212,0.0
213,0.0
214,0.0
215,0.0
216,4802142.162788154
217,20.0
606,20.998833105983014
607,18.303649789954758
608,15.834926428756328
218,15268366.590207199
219,0.0
220,0.11954666595645998
221,0.5309746297703587
222,12386070.749580355
223,0.0
224,4.278742020425966
225,19.00432305662127
275,9.501481317416092
960,0.0
961,0.0
2,2, 1,27, 0, 1, 0.00,60.00,Friday
7,-10.891666666666666
8,-12.200000000000001
9,-11.230187713701042
10,0.0013959281017068828
11,89.33333333333333
12,95758.33333333333
13,12.15
14,2591999.9930504933
136,0.0
210,118799.99999999334
211,15.496263243147936
212,0.0
213,0.0
214,0.0
215,0.0
216,4525209.796591959
217,15.189054155355159
606,18.90381289509394
607,13.106829663894752
608,11.044310665096326
218,13102612.739823958
219,0.0
220,0.11975784506790521
221,0.5224202861690007
222,0.0
223,0.0
224,0.0
225,0.0
275,13.161863033821783
960,0.0
961,0.0
2,2, 1,27, 0, 2, 0.00,60.00,Friday
7,-11.316836757375
8,-12.130947111608334
9,-11.593860059766309
10,0.001368380203727984
11,91.0
12,95800.0
13,12.049999999999999
14,2591999.9930504933
136,0.0
210,118799.99999999334
211,14.23145230890856
212,0.0
213,0.0
214,0.0
215,0.0
216,4260777.75377021
217,12.5943181683849
606,17.32856625950121
607,10.325184882294579
608,8.48431720713507
218,12130644.626526931
219,0.0
220,0.12000977180685257
221,0.5189719967491759
222,0.0
223,0.0
224,0.0
225,0.0
275,15.927396836850903
960,0.0
961,0.0
2,2, 1,27, 0, 3, 0.00,60.00,Friday
7,-11.980270143775
8,-12.596050598525002
9,-12.330168924933526
10,0.0012467821055238083
11,88.08333333333333
12,95916.66666666667
13,11.508333333333335
14,2591999.9930504933
136,0.0
210,118799.99999999334
211,13.273794057018556
212,0.0
213,0.0
214,0.0
215,0.0
216,4200636.659812419
217,11.674576614516711
606,16.527031874989806
607,9.3368554890134
608,7.5574840056115065
218,12187291.325488111
219,0.0
220,0.12048481778583593
221,0.5188128678002527
222,0.0
223,0.0
224,0.0
225,0.0
275,16.822940074064594
960,0.0
961,0.0
2,2, 1,27, 0, 4, 0.00,60.00,Friday
7,-13.14382990265
8,-13.585057837086351
9,-13.5390757094142
10,0.0010863572872132144
11,85.41666666666667
12,96058.33333333333
13,11.941666666666668
14,2591999.9930504933
136,0.0
210,118799.99999999334
211,12.454965341857466
212,0.0
213,0.0
214,0.0
215,0.0
216,4296882.116383945
217,10.866332248258855
606,15.830807704827256
607,8.44739552631364
608,6.681978279815843
218,12538343.67693371
219,0.0
220,0.12123410317464434
221,0.5197220111580753
222,0.0
223,0.0
224,0.0
225,0.0
275,16.8079594853622
960,0.0
961,0.0
2,2, 1,27, 0, 5, 0.00,60.00,Friday
7,-14.574262464700004
8,-14.997186679771099
9,-14.997186679771099
10,0.0009217297772422246
11,82.66666666666667
12,96158.33333333333
13,12.691666666666668
14,2591999.9930504933
136,0.0
210,118799.99999999334
211,11.71016975384162
212,0.0
213,0.0
214,0.0
215,0.0
216,4426654.867349693
217,10.104533699422491
606,15.187026825873005
607,7.592419876257282
608,5.815359176353383
218,13011530.975463895
219,0.0
220,0.12206397157447639
221,0.5212295209983077
222,0.0
223,0.0
224,0.0
225,0.0
275,16.157001115033495
960,0.0
961,0.0
2,2, 1,27, 0, 6, 0.00,60.00,Friday
7,-15.696647521800001
8,-16.175714906653326
9,-16.175714906653326
10,0.0007892545280531047
11,78.66666666666667
12,96258.33333333333
13,12.258333333333333
14,2591999.9930504933
136,0.0
210,118799.99999999334
211,11.017046770633398
212,0.0
213,0.0
214,0.0
215,0.0
216,4496681.111996874
217,9.411329326907758
606,14.593295957635528
607,6.8007663943525225
608,4.99703139732813
218,13283355.630396614
219,0.0
220,0.12274946877340807
221,0.5222090402829346
222,0.0
223,0.0
224,0.0
225,0.0
275,15.041434948025094
960,0.0
961,0.0
2,2, 1,27, 0, 7, 0.00,60.00,Friday
7,-16.569397999299998
8,-17.11349428254925
9,-17.11349428254925
10,0.0006841196149476877
11,74.08333333333333
12,96416.66666666667
13,11.216666666666669
14,2591999.9930504933
136,0.0
210,118799.99999999334
211,10.37468705984881
212,0.0
213,0.0
214,0.0
215,0.0
216,4509520.610600181
217,8.785806589594943
606,14.048781851195203
607,6.0805150086380495
608,4.250071343734383
218,13432543.078921637
219,0.0
220,0.12339045625979007
221,0.5227963932798313
222,0.0
223,0.0
224,0.0
225,0.0
275,13.809148258521299
960,0.0
961,0.0
2,2, 1,27, 0, 8, 0.00,60.00,Friday
7,-17.792593361425
8,-18.315698369473626
9,-18.315698369473626
10,0.0005961672357221109
11,72.58333333333333
12,96616.66666666667
13,10.216666666666669
14,2591999.9930504933
136,0.0
210,118799.99999999334
211,9.782762105012905
212,308146.81333972956
213,149247.5731089429
214,158899.2402307866
215,0.0
216,4134334.4829101656
217,8.173142610156416
606,13.533030767410787
607,5.374573180273739
608,3.52343915699968
218,13787024.199437186
219,0.0
220,0.12425650504470158
221,0.5241252209064897
222,0.0
223,0.0
224,0.0
225,0.0
275,12.583177795383493
960,0.0
961,0.0
2,2, 1,27, 0, 9, 0.00,60.00,Friday
7,-18.274646250075
8,-18.769342756185072
9,-18.769342756185072
10,0.0005717049578998953
11,73.0
12,96758.33333333333
13,9.799999999999999
14,2591999.9930504933
136,0.0
210,118799.99999999334
211,9.34885817163031
212,2124104.5032158447
213,1264010.2540737316
214,860094.2491421129
215,0.0
216,1594236.3536415864
217,7.734671369390193
606,13.158857742706651
607,4.862131445246084
608,2.9896474040197574
218,13750040.122682534
219,0.0
220,0.12467848223018642
221,0.5242288040338035
222,0.0
223,0.0
224,0.0
225,0.0
275,11.429516809582351
960,0.0
961,0.0
2,2, 1,27, 0,10, 0.00,60.00,Friday
7,-17.407302457241666
8,-17.93676408168803
9,-17.93676408168803
10,0.0006198253964680625
11,73.0
12,96916.66666666667
13,9.508333333333333
14,2591999.9930504933
136,0.0
210,118799.99999999334
211,9.16877110273276
212,4324903.583613867
213,2945838.9464648403
214,1379064.6371490266
215,1534491.0634856885
216,0.0
217,7.602206742294485
606,13.019008850629511
607,4.696989206756766
608,2.8043834093045192
218,13070828.61735823
219,0.0
220,0.12444952126608577
221,0.5221163254931439
222,0.0
223,0.0
224,0.0
225,0.0
275,10.685345157853122
960,0.0
961,0.0
2,2, 1,27, 0,11, 0.00,60.00,Friday
7,-16.082307564
8,-16.720142372357575
9,-16.720142372357575
10,0.0006778720987736073
11,70.66666666666667
12,97058.33333333333
13,8.075000000000001
14,2591999.9930504933
136,0.0
210,118799.99999999334
211,9.219639776201255
212,6044523.94491162
213,4239504.841909489
214,1805019.1030021298
215,4096507.6307232804
216,0.0
217,7.711405277064305
606,13.079447921678224
607,4.811685318277238
608,2.9055099979354835
218,12308235.485823678
219,0.0
220,0.12397754789041998
221,0.5195705337789003
222,0.0
223,0.0
224,0.0
225,0.0
275,10.47768349599371
960,0.0
961,0.0
2,2, 1,27, 0,12, 0.00,60.00,Friday
7,-14.758073579491665
8,-15.501900391225673
9,-15.501900391225673
10,0.0007479331626342008
11,69.0
12,97158.33333333333
13,6.616666666666667
14,2591999.9930504933
136,0.0
210,118799.99999999334
211,9.414457379993902
212,6995786.643130807
213,4940331.993350738
214,2055454.6497800692
215,5608696.014463302
216,0.0
217,7.956101332253499
606,13.259784843178863
607,5.0839055133172755
608,3.1688119201124234
218,11638205.840498814
219,0.0
220,0.12345537075797641
221,0.5173158588197415
222,0.0
223,0.0
224,0.0
225,0.0
275,10.594665661897169
960,0.0
961,0.0
2,2, 1,27, 0,13, 0.00,60.00,Friday
7,-14.076345580108333
8,-14.902749577572221
9,-14.902749577572221
10,0.0007753061750171603
11,67.25
12,97200.0
13,6.2
14,2591999.9930504933
136,0.0
210,118799.99999999334
211,9.653336164214265
212,7248107.288841796
213,5116464.785895016
214,2131642.50294678
215,6033471.109229164
216,0.0
217,8.199456095228829
606,13.462519244879502
607,5.36130329516629
608,3.44748951586867
218,11401030.769393705
219,0.0
220,0.12317769475476292
221,0.5164089770533389
222,0.0
223,0.0
224,0.0
225,0.0
275,10.966443888217839
960,0.0
961,0.0
2,2, 1,27, 0,14, 0.00,60.00,Friday
7,-13.853868348758333
8,-14.680334895663327
9,-14.680334895663327
10,0.0007968013699666266
11,67.75
12,97258.33333333333
13,7.716666666666666
14,2591999.9930504933
136,0.0
210,118799.99999999334
211,9.863068932307987
212,7012499.773102851
213,4951319.094080222
214,2061180.6790226283
215,5732037.565746081
216,0.0
217,8.369465522552357
606,13.62344962487184
607,5.555651170958808
608,3.6440076759888886
218,11379892.429492826
219,0.0
220,0.12314160977697595
221,0.5162832721000359
222,0.0
223,0.0
224,0.0
225,0.0
275,11.24745474621673
960,0.0
961,0.0
2,2, 1,27, 0,15, 0.00,60.00,Friday
7,-13.632386347525001
8,-14.438936300978328
9,-14.438936300978328
10,0.0008272250661948599
11,69.0
12,97358.33333333333
13,8.158333333333333
14,2591999.9930504933
136,0.0
210,118799.99999999334
211,9.990204699895557
212,6195113.327826489
213,4403261.833297905
214,1791851.4945285837
215,4591721.567891288
216,0.0
217,8.469030016013987
606,13.719183766035146
607,5.675350206959634
608,3.7739607912512576
218,11321752.000045193
219,0.0
220,0.12315700559432273
221,0.5160265787325126
222,0.0
223,0.0
224,0.0
225,0.0
275,11.637254059992463
960,0.0
961,0.0
2,2, 1,27, 0,16, 0.00,60.00,Friday
7,-13.703643690483332
8,-14.459942559608708
9,-14.459942559608708
10,0.0008417927373434248
11,70.75
12,97458.33333333333
13,8.633333333333333
14,2591999.9930504933
136,0.0
210,118799.99999999334
211,9.966668349659937
212,4356680.3248883085
213,3034594.163095975
214,1322086.161792334
215,2056853.8252971512
216,0.0
217,8.441027651334998
606,13.69715983350875
607,5.65559741382251
608,3.7719581735282315
218,11375340.79881751
219,0.0
220,0.12331450337625433
221,0.5161277054496666
222,0.0
223,0.0
224,0.0
225,0.0
275,12.060438196536525
960,0.0
961,0.0
2,2, 1,27, 0,17, 0.00,60.00,Friday
7,-14.3343841166
8,-15.024860989219318
9,-15.024860989219318
10,0.0008079702984701952
11,72.0
12,97558.33333333333
13,7.2
14,2591999.9930504933
136,0.0
210,118799.99999999334
211,9.707355250406922
212,1792723.179075997
213,1045656.9360341148
214,747066.2430418823
215,0.0
216,1428018.0157716132
217,8.171279639595548
606,13.474604224283615
607,5.369982489641547
608,3.515069169321594
218,11661170.72859854
219,0.0
220,0.12374871389572946
221,0.5169291658513039
222,0.0
223,0.0
224,0.0
225,0.0
275,12.485846701182984
960,0.0
961,0.0
2,2, 1,27, 0,18, 0.00,60.00,Friday
7,-15.216350962925
8,-15.862689083406366
9,-15.862689083406366
10,0.0007445315975585679
11,72.0
12,97600.0
13,4.4750000000000005
14,2591999.9930504933
136,0.0
210,118799.99999999334
211,9.219137549628552
212,0.0
213,0.0
214,0.0
215,0.0
216,3903066.5934230993
217,7.680857120508278
606,13.063330076465709
607,4.834566906988479
608,3.0081627255262173
218,11966414.565044506
219,0.0
220,0.12423750355413006
221,0.5178298939213394
222,0.0
223,0.0
224,0.0
225,0.0
275,12.640921999422856
960,0.0
961,0.0
2,2, 1,27, 0,19, 0.00,60.00,Friday
7,-16.157953804191667
8,-16.759642157175907
9,-16.759642157175907
10,0.0006822321049354225
11,72.0
12,97600.0
13,4.533333333333333
14,2591999.9930504933
136,0.0
210,118799.99999999334
211,8.677754448872316
212,0.0
213,0.0
214,0.0
215,0.0
216,3951654.5064210542
217,7.157961115447342
606,12.615679246761971
607,4.255087695899693
608,2.448111650830677
218,12255693.799374852
219,0.0
220,0.12470520384831328
221,0.5187778140252929
222,0.0
223,0.0
224,0.0
225,0.0
275,12.476486043270475
960,0.0
961,0.0
2,2, 1,27, 0,20, 0.00,60.00,Friday
7,-16.442601759625
8,-17.03085251321711
9,-17.03085251321711
10,0.0006637537777300288
11,72.0
12,97658.33333333333
13,5.2
14,2591999.9930504933
136,0.0
210,118799.99999999334
211,8.149442446639284
212,0.0
213,0.0
214,0.0
215,0.0
216,3916529.4002053584
217,6.68895037155366
606,12.19321888061114
607,3.730847529034051
608,1.9368762144860827
218,12144794.062438287
219,0.0
220,0.12492165030796676
221,0.5184608630548274
222,0.0
223,0.0
224,0.0
225,0.0
275,12.15752801244774
960,0.0
961,0.0
2,2, 1,27, 0,21, 0.00,60.00,Friday
7,-16.870370133124997
8,-17.380349412361706
9,-17.380349412361706
10,0.0006631510197444893
11,74.91666666666667
12,97700.0
13,5.491666666666667
14,2591999.9930504933
136,0.0
210,118799.99999999334
211,7.675331278448019
212,0.0
213,0.0
214,0.0
215,0.0
216,3915678.2246881807
217,6.261211601566102
606,11.812857403564388
607,3.256827479894009
608,1.4809006767438577
218,12131272.990025803
219,0.0
220,0.1251837934381915
221,0.5185076423418719
222,0.0
223,0.0
224,0.0
225,0.0
275,12.023201972517796
960,0.0
961,0.0
2,2, 1,27, 0,22, 0.00,60.00,Friday
7,-17.116333720283333
8,-17.632512153619572
9,-17.632512153619572
10,0.0006404911866985607
11,74.08333333333333
12,97758.33333333333
13,5.408333333333334
14,2591999.9930504933
136,0.0
210,118799.99999999334
211,7.242140499890822
212,0.0
213,0.0
214,0.0
215,0.0
216,3878979.067659612
217,5.857233964386701
606,11.460233156510013
607,2.8100220185908142
608,1.052916311672151
218,12063188.217564534
219,0.0
220,0.1253833065491524
221,0.5182523409287707
222,0.0
223,0.0
224,0.0
225,0.0
275,11.930135829314835
960,0.0
961,0.0
2,2, 1,27, 0,23, 0.00,60.00,Friday
7,-16.905566782191666
8,-17.365467670587176
9,-17.365467670587176
10,0.0006811469775504938
11,77.25
12,97800.0
13,4.558333333333334
14,2591999.9930504933
136,0.0
210,118799.99999999334
211,6.865215028119503
212,0.0
213,0.0
214,0.0
215,0.0
216,3740611.1299838317
217,5.545738860385072
606,11.169271459364102
607,2.4663875640273076
608,0.7251636068015094
218,11710457.123720013
219,0.0