Program Version,EnergyPlus, Version 23.2.0-7636e6b3e9, YMD=2024.11.10 12:46
1,5,Environment Title[],Latitude[deg],Longitude[deg],Time Zone[],Elevation[m]
2,8,Day of Simulation[],Month[],Day of Month[],DST Indicator[1=yes 0=no],Hour[],StartMinute[],EndMinute[],DayType
3,5,Cumulative Day of Simulation[],Month[],Day of Month[],DST Indicator[1=yes 0=no],DayType  ! When Daily Report Variables Requested
4,2,Cumulative Days of Simulation[],Month[]  ! When Monthly Report Variables Requested
5,1,Cumulative Days of Simulation[] ! When Run Period Report Variables Requested
6,1,Calendar Year of Simulation[] ! When Annual Report Variables Requested
7,1,Environment,Site Outdoor Air Drybulb Temperature [C] !Hourly
8,1,Environment,Site Outdoor Air Dewpoint Temperature [C] !Hourly
9,1,Environment,Site Outdoor Air Wetbulb Temperature [C] !Hourly
10,1,Environment,Site Outdoor Air Humidity Ratio [kgWater/kgDryAir] !Hourly
11,1,Environment,Site Outdoor Air Relative Humidity [%] !Hourly
12,1,Environment,Site Outdoor Air Barometric Pressure [Pa] !Hourly
13,1,Environment,Site Wind Speed [m/s] !Hourly
150,1,WHOLEHOUSE,Zone People Total Heating Energy [J] !Hourly
260,1,WHOLEHOUSE,Zone Lights Total Heating Energy [J] !Hourly
557,1,WHOLEHOUSE,Zone Electric Equipment Total Heating Energy [J] !Hourly
558,1,WHOLEHOUSE,Zone Mean Radiant Temperature [C] !Hourly
559,1,WHOLEHOUSE,Zone Windows Total Transmitted Solar Radiation Energy [J] !Hourly
560,1,WHOLEHOUSE,Zone Exterior Windows Total Transmitted Beam Solar Radiation Energy [J] !Hourly
561,1,WHOLEHOUSE,Zone Exterior Windows Total Transmitted Diffuse Solar Radiation Energy [J] !Hourly
562,1,WHOLEHOUSE,Zone Windows Total Heat Gain Energy [J] !Hourly
563,1,WHOLEHOUSE,Zone Windows Total Heat Loss Energy [J] !Hourly
564,1,WHOLEHOUSE,Zone Mean Air Temperature [C] !Hourly
565,1,WHOLEHOUSE,Zone Infiltration Total Heat Loss Energy [J] !Hourly
566,1,WHOLEHOUSE,Zone Infiltration Total Heat Gain Energy [J] !Hourly
567,1,WHOLEHOUSE,Zone Infiltration Standard Density Volume Flow Rate [m3/s] !Hourly
568,1,WHOLEHOUSE,Zone Infiltration Air Change Rate [ach] !Hourly
569,1,WHOLEHOUSE,Zone Ventilation Total Heat Loss Energy [J] !Hourly
570,1,WHOLEHOUSE,Zone Ventilation Total Heat Gain Energy [J] !Hourly
571,1,WHOLEHOUSE,Zone Ventilation Standard Density Volume Flow Rate [m3/s] !Hourly
572,1,WHOLEHOUSE,Zone Ventilation Air Change Rate [ach] !Hourly
623,1,WHOLEHOUSE,Zone Air Relative Humidity [%] !Hourly
995,1,WHOLEHOUSE OCCUPANTS,Zone Thermal Comfort Pierce Model Standard Effective Temperature [C] !Hourly
996,1,WHOLEHOUSE,Zone Heat Index [C] !Hourly
997,1,WHOLEHOUSE,Zone Humidity Index [] !Hourly
1319,1,WHOLEHOUSE,Zone Mechanical Ventilation Standard Density Volume Flow Rate [m3/s] !Hourly
1320,1,WHOLEHOUSE,Zone Mechanical Ventilation Air Changes per Hour [ach] !Hourly
End of Data Dictionary
1,ANNUAL,  43.90, -92.50,  -6.00, 398.00
2,1, 1,26, 0, 1, 0.00,60.00,Thursday
7,-14.724999999999998
8,-16.699999999999996
9,-15.125455178245845
10,0.000926342476192882
11,83.25
12,96575.0
13,7.300000000000001
150,2592000.0
260,0.0
557,147945.20547945204
558,16.871055614472567
559,0.0
560,0.0
561,0.0
562,0.0
563,5388556.571279904
564,20.0
995,21.400896463247776
996,18.378702980148994
997,16.199437427181408
565,14645229.429656412
566,0.0
567,0.09520299721357507
568,34.40709160171046
569,0.0
570,0.0
571,0.0
572,0.0
623,12.37585881421673
1319,0.0
1320,0.0
2,1, 1,26, 0, 2, 0.00,60.00,Thursday
7,-17.575
8,-19.4
9,-17.881506046950744
10,0.0007013729908110488
11,84.125
12,97100.0
13,4.2875
150,2592000.0
260,0.0
557,147945.20547945204
558,16.65459395044784
559,0.0
560,0.0
561,0.0
562,0.0
563,5628541.292644199
564,20.0
995,21.273350811708365
996,18.339605587814304
997,16.011023289887458
565,14200629.711316645
566,0.0
567,0.08549704128161648
568,30.71127479170959
569,0.0
570,0.0
571,0.0
572,0.0
623,10.878511873739333
1319,0.0
1320,0.0
2,1, 1,26, 0, 3, 0.00,60.00,Thursday
7,-17.425
8,-19.4
9,-17.759790640483917
10,0.0007012209071399187
11,82.875
12,97037.5
13,4.4125
150,2592000.0
260,0.0
557,147945.20547945204
558,16.468604445365276
559,0.0
560,0.0
561,0.0
562,0.0
563,5591780.401667143
564,20.0
995,21.177286955120625
996,18.325008183152086
997,15.939889470565962
565,14124369.529419215
566,0.0
567,0.0858117455795217
568,30.840088763931696
569,0.0
570,0.0
571,0.0
572,0.0
623,10.319462333483944
1319,0.0
1320,0.0
2,1, 1,26, 0, 4, 0.00,60.00,Thursday
7,-16.8875
8,-18.712500000000002
9,-17.21069969326428
10,0.0007497944544184173
11,84.125
12,96937.5
13,6.2250000000000005
150,2592000.0
260,0.0
557,147945.20547945204
558,16.321927499816287
559,0.0
560,0.0
561,0.0
562,0.0
563,5670181.909069872
564,20.000000000000004
995,21.103777325340097
996,18.317540576891624
997,15.903310414796461
565,15222534.419060053
566,0.0
567,0.09431637116938871
568,33.92960390562564
569,0.0
570,0.0
571,0.0
572,0.0
623,10.033468902232089
1319,0.0
1320,0.0
2,1, 1,26, 0, 5, 0.00,60.00,Thursday
7,-17.0125
8,-18.987499999999997
9,-17.35798263461261
10,0.0007303094614619419
11,82.875
12,96900.0
13,7.2
150,2592000.0
260,0.0
557,147945.20547945204
558,16.208527530559877
559,0.0
560,0.0
561,0.0
562,0.0
563,5717783.363043517
564,20.0
995,21.045820907168356
996,18.30978328020155
997,15.86517121144536
565,16127444.210594438
566,0.0
567,0.09974312053157755
568,35.89279999597552
569,0.0
570,0.0
571,0.0
572,0.0
623,9.73638094388895
1319,0.0
1320,0.0
2,1, 1,26, 0, 6, 0.00,60.00,Thursday
7,-16.8875
8,-19.0875
9,-17.27481232608201
10,0.0007215564826355766
11,81.0
12,96962.5
13,6.2625
150,2592000.0
260,0.0
557,147945.20547945204
558,16.131408098614333
559,0.0
560,0.0
561,0.0
562,0.0
563,5599439.665898234
564,20.0
995,21.00593339120635
996,18.305660404139168
997,15.844856353859765
565,15223681.180483725
566,0.0
567,0.09454896965266298
568,34.00064696624875
569,0.0
570,0.0
571,0.0
572,0.0
623,9.578483562776611
1319,0.0
1320,0.0
2,1, 1,26, 0, 7, 0.00,60.00,Thursday
7,-16.325000000000003
8,-18.525000000000002
9,-16.72940180012346
10,0.00076027586527989
11,81.0
12,97000.0
13,6.0125
150,2592000.0
260,0.0
557,147945.20547945204
558,16.083479665623027
559,0.0
560,0.0
561,0.0
562,0.0
563,5489195.600661409
564,20.0
995,20.984453315273136
996,18.311644953058877
997,15.874341315887825
565,14609920.1270376
566,0.0
567,0.09210916799184099
568,33.112028180337354
569,0.0
570,0.0
571,0.0
572,0.0
623,9.807679053318568
1319,0.0
1320,0.0
2,1, 1,26, 0, 8, 0.00,60.00,Thursday
7,-16.1
8,-17.9875
9,-16.45729687354773
10,0.0008008221117630724
11,83.5
12,96937.5
13,6.825
150,2592000.0
260,0.0
557,147945.20547945204
558,16.049450333760007
559,47313.08552677056
560,0.0
561,47313.08552677056
562,0.0
563,5436252.477082545
564,20.0
995,20.970257219978123
996,18.316113475664235
997,15.89630795081602
565,15111031.773211487
566,0.0
567,0.09591390909710207
568,34.50364940248555
569,0.0
570,0.0
571,0.0
572,0.0
623,9.978813961608823
1319,0.0
1320,0.0
2,1, 1,26, 0, 9, 0.00,60.00,Thursday
7,-16.1
8,-18.1125
9,-16.47934739361807
10,0.0007920311496332172
11,82.5
12,96837.5
13,7.2
150,2592000.0
260,0.0
557,147945.20547945204
558,16.03673339702506
559,289948.07564618066
560,0.0
561,289948.07564618066
562,0.0
563,5108364.320181509
564,20.0
995,20.965170148430364
996,18.316186373968165
997,15.896665866599923
565,15420608.790389087
566,0.0
567,0.09780967963633798
568,35.2219105853363
569,0.0
570,0.0
571,0.0
572,0.0
623,9.981605811546753
1319,0.0
1320,0.0
2,1, 1,26, 0,10, 0.00,60.00,Thursday
7,-15.787500000000001
8,-17.9875
9,-16.209542795468842
10,0.0008009367141555291
11,81.0
12,96800.0
13,7.2
150,2592000.0
260,0.0
557,147945.20547945204
558,16.061115340759393
559,678803.9416766549
560,0.0
561,678803.9416766549
562,0.0
563,4502226.979629592
564,20.0
995,20.977243215840492
996,18.315623169514694
997,15.89390019871175
565,15176897.497122487
566,0.0
567,0.09713718376531488
568,34.993140609638765
569,0.0
570,0.0
571,0.0
572,0.0
623,9.9600362792861
1319,0.0
1320,0.0
2,1, 1,26, 0,11, 0.00,60.00,Thursday
7,-14.5375
8,-16.737500000000004
9,-14.985997355900123
10,0.0009081368533886112
11,81.625
12,96675.0
13,8.5125
150,2592000.0
260,0.0
557,147945.20547945204
558,16.123377201198778
559,1020801.1554685978
560,0.0
561,1020801.1554685978
562,0.0
563,3891619.662987882
564,20.0
995,21.011410647733946
996,18.32198657733391
997,15.925098659060026
565,15240097.36391696
566,0.0
567,0.10139518779882079
568,36.57703524204935
569,0.0
570,0.0
571,0.0
572,0.0
623,10.203741259596388
1319,0.0
1320,0.0
2,1, 1,26, 0,12, 0.00,60.00,Thursday
7,-13.9
8,-16.474999999999998
9,-14.441562196447379
10,0.0009313504993373046
11,78.875
12,96475.0
13,9.3
150,2592000.0
260,0.0
557,147945.20547945204
558,16.200271240776818
559,1150524.265084465
560,0.0
561,1150524.265084465
562,0.0
563,3658290.4814469623
564,20.0
995,21.053693877711613
996,18.32862477131477
997,15.957570242797335
565,15386066.682307445
566,0.0
567,0.10403269294516468
568,37.60831912559635
569,0.0
570,0.0
571,0.0
572,0.0
623,10.457969965246544
1319,0.0
1320,0.0
2,1, 1,26, 0,13, 0.00,60.00,Thursday
7,-13.9
8,-16.325000000000003
9,-14.410149196044904
10,0.0009481207597825905
11,80.125
12,96275.0
13,8.9875
150,2592000.0
260,0.0
557,147945.20547945204
558,16.242564068484484
559,875392.5593398282
560,0.0
561,875392.5593398282
562,0.0
563,4033905.1486830106
564,20.0
995,21.0773565822292
996,18.330663301627638
997,15.967517108681234
565,15110534.890742479
566,0.0
567,0.1021779897370335
568,37.01530882937844
569,0.0
570,0.0
571,0.0
572,0.0
623,10.536041338930758
1319,0.0
1320,0.0
2,1, 1,26, 0,14, 0.00,60.00,Thursday
7,-13.212500000000002
8,-15.0375
9,-13.629910272152262
10,0.0010671291557603558
11,84.5
12,96137.5
13,9.425
150,2592000.0
260,0.0
557,147945.20547945204
558,16.260945938166017
559,767286.138737055
560,0.0
561,767286.138737055
562,0.0
563,4092066.7847746126
564,20.0
995,21.092305769391835
996,18.34214226725514
997,16.023365352829188
565,14872355.380705565
566,0.0
567,0.10290973278733719
568,37.33811474527711
569,0.0
570,0.0
571,0.0
572,0.0
623,10.975661299132968
1319,0.0
1320,0.0
2,1, 1,26, 0,15, 0.00,60.00,Thursday
7,-12.425
8,-14.0875
9,-12.824469472828827
10,0.001167935735116845
11,86.0
12,95975.0
13,10.1125
150,2592000.0
260,0.0
557,147945.20547945204
558,16.264859970706265
559,575167.8965006998
560,0.0
561,575167.8965006998
562,0.0
563,4264124.686420782
564,20.0
995,21.102163347259633
996,18.357978449583367
997,16.10001696389464
565,14786633.265119374
566,0.0
567,0.10470907503455007
568,38.06108021438755
569,0.0
570,0.0
571,0.0
572,0.0
623,11.582153388299123
1319,0.0
1320,0.0
2,1, 1,26, 0,16, 0.00,60.00,Thursday
7,-11.8875
8,-13.525000000000002
9,-12.283870225685764
10,0.0012368179188931823
11,86.625
12,95837.5
13,11.6125
150,2592000.0
260,0.0
557,147945.20547945204
558,16.249400162421093
559,330469.853480819
560,0.0
561,330469.853480819
562,0.0
563,4577431.211946264
564,20.0
995,21.100055755178094
996,18.368077421901734
997,16.148654434513595
565,15449536.848602403
566,0.0
567,0.11122437933276078
568,40.491571363202695
569,0.0
570,0.0
571,0.0
572,0.0
623,11.96892254091734
1319,0.0
1320,0.0
2,1, 1,26, 0,17, 0.00,60.00,Thursday
7,-11.325
8,-12.9875
9,-11.744929919152755
10,0.0012977535742866744
11,86.375
12,95800.0
13,11.712500000000002
150,2592000.0
260,0.0
557,147945.20547945204
558,16.22276110099883
559,133388.61937769988
560,0.0
561,133388.61937769988
562,0.0
563,4758248.756849246
564,20.0
995,21.090844601178063
996,18.376852556383987
997,16.190750838721996
565,15091278.588281985
566,0.0
567,0.11055005113913562
568,40.26486307009205
569,0.0
570,0.0
571,0.0
572,0.0
623,12.30499152108861
1319,0.0
1320,0.0
2,1, 1,26, 0,18, 0.00,60.00,Thursday
7,-11.1
8,-12.425
9,-11.439904852347567
10,0.00136641937230199
11,89.125
12,95800.0
13,10.3625
150,2592000.0
260,0.0
557,147945.20547945204
558,16.179136681827167
559,0.0
560,0.0
561,0.0
562,0.0
563,5203861.381279523
564,20.0
995,21.07516391244941
996,18.391449115431488
997,16.2604754203688
565,13999667.886208864
566,0.0
567,0.103126150104278
568,37.56603464112398
569,0.0
570,0.0
571,0.0
572,0.0
623,12.864008676099363
1319,0.0
1320,0.0
2,1, 1,26, 0,19, 0.00,60.00,Thursday
7,-11.1
8,-12.2
9,-11.381230151609378
10,0.0013961426593420562
11,91.0
12,95737.5
13,10.425
150,2592000.0
260,0.0
557,147945.20547945204
558,16.15747565808318
559,0.0
560,0.0
561,0.0
562,0.0
563,4838832.298588123
564,20.0
995,21.069874266469242
996,18.40331475871177
997,16.316917737714377
565,14079044.054237738
566,0.0
567,0.10337526176634967
568,37.68583309837224
569,0.0
570,0.0
571,0.0
572,0.0
623,13.318437567684617
1319,0.0
1320,0.0
2,1, 1,26, 0,20, 0.00,60.00,Thursday
7,-11.1
8,-12.575
9,-11.479427753693562
10,0.0013486243051812987
11,87.875
12,95700.0
13,11.1125
150,2592000.0
260,0.0
557,147945.20547945204
558,16.121926013667807
559,0.0
560,0.0
561,0.0
562,0.0
563,5220037.187673945
564,20.0
995,21.05221437446969
996,18.401493052896974
997,16.30826741713317
565,14597554.207555924
566,0.0
567,0.10688178534817724
568,38.97862899534926
569,0.0
570,0.0
571,0.0
572,0.0
623,13.248670110947806
1319,0.0
1320,0.0
2,1, 1,26, 0,21, 0.00,60.00,Thursday
7,-10.7875
8,-12.425
9,-11.215199069492822
10,0.0013682105164957979
11,86.625
12,95637.5
13,11.6125
150,2592000.0
260,0.0
557,147945.20547945204
558,16.111367669522
559,0.0
560,0.0
561,0.0
562,0.0
563,4820088.131246104
564,20.0
995,21.046150987831574
996,18.397348933210385
997,16.288578742882088
565,14662914.035271153
566,0.0
567,0.10875143814428762
568,39.684981483634864
569,0.0
570,0.0
571,0.0
572,0.0
623,13.089959144227533
1319,0.0
1320,0.0
2,1, 1,26, 0,22, 0.00,60.00,Thursday
7,-10.9125
8,-12.2
9,-11.245632702493644
10,0.0013982521061876474
11,89.5
12,95600.0
13,12.175
150,2592000.0
260,0.0
557,147945.20547945204
558,16.102846526353204
559,0.0
560,0.0
561,0.0
562,0.0
563,4875841.94603342
564,20.000000000000004
995,21.043182082513564
996,18.39934125519043
997,16.29804991856858
565,15119500.205848614
566,0.0
567,0.11184566955997412
568,40.83088863115533
569,0.0
570,0.0
571,0.0
572,0.0
623,13.166260837080074
1319,0.0
1320,0.0
2,1, 1,26, 0,23, 0.00,60.00,Thursday
7,-10.7875
8,-11.8875
9,-11.074838060884929
10,0.001437025038276286
11,91.0
12,95662.5
13,11.712500000000002
150,2592000.0
260,0.0
557,147945.20547945204
558,16.095252731190968
559,0.0
560,0.0
561,0.0
562,0.0
563,4835086.087050377
564,20.0
995,21.040346151628796
996,18.403421551158566
997,16.317420196219256
565,14699015.051389232
566,0.0
567,0.10928256414343848
568,39.870750636713
569,0.0
570,0.0
571,0.0
572,0.0
623,13.322527491179104
1319,0.0
1320,0.0
2,1, 1,26, 0,24, 0.00,60.00,Thursday
7,-10.6
8,-12.0125
9,-10.97200449689411
10,0.001420439851244829
11,88.5
12,95700.0
13,11.6125
150,2592000.0
260,0.0
557,147945.20547945204
558,16.09114706366098
559,0.0
560,0.0
561,0.0
562,0.0
563,4801339.300105768
564,20.0
995,21.039665516372448
996,18.40793562135297
997,16.338830199319858
565,14547249.06891332
566,0.0
567,0.10843711783485424
568,39.54823801549429
569,0.0
570,0.0
571,0.0
572,0.0
623,13.495406775219951
1319,0.0
1320,0.0
2,2, 1,27, 0, 1, 0.00,60.00,Friday
7,-10.869695502232455
8,-12.065298050173274
9,-11.20326655690491
10,0.0014012531466298436
11,89.5
12,95762.5
13,12.175
150,2592000.0
260,0.0
557,147945.20547945204
558,15.489864607488284
559,0.0
560,0.0
561,0.0
562,0.0
563,4520216.737851983
564,13.649144438219595
995,18.344376556239986
996,11.525595337512364
997,9.762726943008726
565,10849161.873231476
566,0.0
567,0.10225328207270455
568,36.421494051563116
569,0.0
570,0.0
571,0.0
572,0.0
623,17.463348792792992
1319,0.0
1320,0.0
2,2, 1,27, 0, 2, 0.00,60.00,Friday
7,-11.218192658737784
8,-11.766850123188087
9,-11.49706644750988
10,0.0013805593068583824
11,91.0
12,95800.0
13,12.025000000000002
150,2592000.0
260,0.0
557,147945.20547945204
558,14.232572844814035
559,0.0
560,0.0
561,0.0
562,0.0
563,4257659.194138616
564,12.752666664775218
995,17.395049243305294
996,10.524843308837141
997,8.73490565329896
565,10294407.102591839
566,0.0
567,0.10057153619720136
568,35.71068065228191
569,0.0
570,0.0
571,0.0
572,0.0
623,16.902935311743054
1319,0.0
1320,0.0
2,2, 1,27, 0, 3, 0.00,60.00,Friday
7,-11.90251134529625
8,-12.281650262938589
9,-12.26047658921617
10,0.001252454920629057
11,87.875
12,95925.0
13,11.4875
150,2592000.0
260,0.0
557,147945.20547945204
558,13.329264871475146
559,0.0
560,0.0
561,0.0
562,0.0
563,4222845.048875947
564,11.92634095245474
995,16.644904649256535
996,9.59631607530387
997,7.779497840664721
565,9940006.94098442
566,0.0
567,0.09798021760257193
568,34.63074453869697
569,0.0
570,0.0
571,0.0
572,0.0
623,16.15347719843856
1319,0.0
1320,0.0
2,2, 1,27, 0, 4, 0.00,60.00,Friday
7,-13.08699962180215
8,-13.484972691373336
9,-13.484972691373336
10,0.0010913864929119835
11,85.375
12,96062.5
13,11.9875
150,2592000.0
260,0.0
557,147945.20547945204
558,12.549950042671675
559,0.0
560,0.0
561,0.0
562,0.0
563,4329925.449229389
564,11.110461933686283
995,15.957006120544492
996,8.661643387494168
997,6.793287842841577
565,10442227.126957634
566,0.0
567,0.10183226457726205
568,35.82616549029018
569,0.0
570,0.0
571,0.0
572,0.0
623,14.728573034971806
1319,0.0
1320,0.0
2,2, 1,27, 0, 5, 0.00,60.00,Friday
7,-14.52173721897872
8,-14.950418715791532
9,-14.950418715791532
10,0.0009242483563553306
11,82.5
12,96162.5
13,12.7125
150,2592000.0
260,0.0
557,147945.20547945204
558,11.82319801291466
559,0.0
560,0.0
561,0.0
562,0.0
563,4456081.722516171
564,10.313723007419952
995,15.303459370614927
996,7.740598271729567
997,5.818268071639116
565,11245086.10700874
566,0.0
567,0.10734041624325148
568,37.60765094808508
569,0.0
570,0.0
571,0.0
572,0.0
623,13.019250586549079
1319,0.0
1320,0.0
2,2, 1,27, 0, 6, 0.00,60.00,Friday
7,-15.619303780367197
8,-16.10496495897894
9,-16.10496495897894
10,0.000793206614568963
11,78.5
12,96262.5
13,12.212500000000002
150,2592000.0
260,0.0
557,147945.20547945204
558,11.145149752597309
559,0.0
560,0.0
561,0.0
562,0.0
563,4524950.02185389
564,9.69202263670884
995,14.742744630351432
996,7.019581360896978
997,5.059130982704821
565,11286533.31816075
566,0.0
567,0.10603438635926381
568,37.02576387620623
569,0.0
570,0.0
571,0.0
572,0.0
623,11.596630402788403
1319,0.0
1320,0.0
2,2, 1,27, 0, 7, 0.00,60.00,Friday
7,-16.49227883447723
8,-17.044032065535983
9,-17.044032065535983
10,0.0006870531875213407
11,73.875
12,96425.0
13,11.175
150,2592000.0
260,0.0
557,147945.20547945204
558,10.532403346626749
559,0.0
560,0.0
561,0.0
562,0.0
563,4545913.613468038
564,9.168766736030836
995,14.251344694535966
996,6.4141891216530915
997,4.429628210639033
565,10953720.091111807
566,0.0
567,0.10166097983796626
568,35.36660048394397
569,0.0
570,0.0
571,0.0
572,0.0
623,10.454942162436307
1319,0.0
1320,0.0
2,2, 1,27, 0, 8, 0.00,60.00,Friday
7,-17.74074176697745
8,-18.265147393426396
9,-18.265147393426396
10,0.000599371813087339
11,72.625
12,96625.0
13,10.175
150,2592000.0
260,0.0
557,147945.20547945204
558,9.9820883831006
559,352561.86435457953
560,168555.5940553035
561,184006.27029927605
562,0.0
563,4119639.593502596
564,8.662925827978755
995,13.796485956025142
996,5.831382415740129
997,3.83170644176025
565,10875695.42370027
566,0.0
567,0.098268073992424
568,34.04872158235225
569,0.0
570,0.0
571,0.0
572,0.0
623,9.444578913495732
1319,0.0
1320,0.0
2,2, 1,27, 0, 9, 0.00,60.00,Friday
7,-18.152271792936087
8,-18.651826092142883
9,-18.651826092142883
10,0.0005783443476714651
11,73.0
12,96762.5
13,9.8
150,2592000.0
260,0.0
557,147945.20547945204
558,9.621782193983275
559,2270902.634043918
560,1327582.0119872377
561,943320.6220566798
562,0.0
563,1441939.756239314
564,8.369529612561186
995,13.515056102484426
996,5.501667685745192
997,3.507878423799582
565,10731427.764794683
566,0.0
567,0.0966423494413863
568,33.400980100173115
569,0.0
570,0.0
571,0.0
572,0.0
623,9.177302158940252
1319,0.0
1320,0.0
2,2, 1,27, 0,10, 0.00,60.00,Friday
7,-17.239447929121155
8,-17.775901489151156
9,-17.775901489151156
10,0.0006296209365588617
11,73.0
12,96925.0
13,9.4875
150,2592000.0
260,0.0
557,147945.20547945204
558,9.541584168055007
559,4576718.902971916
560,3013893.1130832983
561,1562825.7898886173
562,1827523.727563465
563,0.0
564,8.417059136230348
995,13.495270911257515
996,5.572020600752111
997,3.603454986980418
565,10014823.791980587
566,0.0
567,0.09319540774169162
568,32.163816442541
569,0.0
570,0.0
571,0.0
572,0.0
623,9.86936152378108
1319,0.0
1320,0.0
2,2, 1,27, 0,11, 0.00,60.00,Friday
7,-15.91484896637003
8,-16.56453874352596
9,-16.56453874352596
10,0.0006868661042507389
11,70.5
12,97062.5
13,7.9875
150,2592000.0
260,0.0
557,147945.20547945204
558,9.698457821271393
559,6343337.83995631
560,4282956.332793026
561,2060381.5071632836
562,4441908.11926122
563,0.0
564,8.78394099290562
995,13.706823523178011
996,5.9971394715828
997,4.042426320490349
565,8622994.91923005
566,0.0
567,0.08314567588899904
568,28.695209209277706
569,0.0
570,0.0
571,0.0
572,0.0
623,10.694635806295889
1319,0.0
1320,0.0
2,2, 1,27, 0,12, 0.00,60.00,Friday
7,-14.591053442037994
8,-15.344143785419782
9,-15.344143785419782
10,0.0007594847928064075
11,69.0
12,97162.5
13,6.575
150,2592000.0
260,0.0
557,147945.20547945204
558,9.989740515677955
559,7294104.188833617
560,4959678.331118318
561,2334425.8577152984
562,5931691.456514503
563,0.0
564,9.229051275034044
995,14.012190567841543
996,6.513716110407093
997,4.580099975116639
565,7413044.172112902
566,0.0
567,0.07387760529075489
568,25.514816257201765
569,0.0
570,0.0
571,0.0
572,0.0
623,11.726967535433213
1319,0.0
1320,0.0
2,2, 1,27, 0,13, 0.00,60.00,Friday
7,-13.955639612535464
8,-14.792593649308095
9,-14.792593649308095
10,0.0007824765917932382
11,67.125
12,97200.0
13,6.2
150,2592000.0
260,0.0
557,147945.20547945204
558,10.305763381297137
559,7519448.255924877
560,5115518.461120246
561,2403929.79480463
562,6299325.557458499
563,0.0
564,9.550784262321372
995,14.281174669183734
996,6.878044925328768
997,4.946768776527174
565,7078838.434329197
566,0.0
567,0.07129539923127273
568,24.643636138147492
569,0.0
570,0.0
571,0.0
572,0.0
623,12.126128216924837
1319,0.0
1320,0.0
2,2, 1,27, 0,14, 0.00,60.00,Friday
7,-13.733685425963415
8,-14.56414811694299
9,-14.56414811694299
10,0.0008070655904077659
11,67.875
12,97262.5
13,7.825
150,2592000.0
260,0.0
557,147945.20547945204
558,10.572782109460764
559,7243798.891284909
560,4940257.240088373
561,2303541.6511965366
562,5926665.512317869
563,0.0
564,9.622952118464555
995,14.431336932314832
996,6.9608068046887706
997,5.031995276719434
565,7857861.402353722
566,0.0
567,0.07974275354396937
568,27.553016013135043
569,0.0
570,0.0
571,0.0
572,0.0
623,12.25546923148872
1319,0.0
1320,0.0
2,2, 1,27, 0,15, 0.00,60.00,Friday
7,-13.51276849485663
8,-14.326319984971441
9,-14.326319984971441
10,0.0008362800819070013
11,69.0
12,97362.5
13,8.1125
150,2592000.0
260,0.0
557,147945.20547945204
558,10.732672959505718
559,6335191.040713609
560,4367825.920347381
561,1967365.120366228
562,4666469.544051091
563,0.0
564,9.733779638647729
995,14.546685702190857
996,7.090477869749135
997,5.169918232003083
565,7945761.942247679
566,0.0
567,0.08099323277189968
568,27.96909386749472
569,0.0
570,0.0
571,0.0
572,0.0
623,12.552691085658243
1319,0.0
1320,0.0
2,2, 1,27, 0,16, 0.00,60.00,Friday
7,-13.605466069044294
8,-14.363868960563387
9,-14.363868960563387
10,0.0008508518832260997
11,70.875
12,97462.5
13,8.7
150,2592000.0
260,0.0
557,147945.20547945204
558,10.739483404792415
559,4358411.654860208
560,2958927.6909107305
561,1399483.9639494761
562,1927711.1066440726
563,0.0
564,9.6154467719472
995,14.503878015028143
996,6.967007355999397
997,5.062348518307597
565,8265410.908516852
566,0.0
567,0.08437443558744726
568,29.094646158367148
569,0.0
570,0.0
571,0.0
572,0.0
623,12.809119837094888
1319,0.0
1320,0.0
2,2, 1,27, 0,17, 0.00,60.00,Friday
7,-14.261855008637419
8,-14.956005830920038
9,-14.956005830920038
10,0.0008133311604341577
11,72.0
12,97562.5
13,7.05
150,2592000.0
260,0.0
557,147945.20547945204
558,10.468818254100523
559,1716738.1050474946
560,977487.9478636615
561,739250.1571838334
562,0.0
563,1666747.2777424855
564,9.464828277220096
995,14.317767965510935
996,6.794060573225162
997,4.883778077428287
565,7668033.703825463
566,0.0
567,0.07664253998880186
568,26.386919374236115
569,0.0
570,0.0
571,0.0
572,0.0
623,12.530830700202168
1319,0.0
1320,0.0
2,2, 1,27, 0,18, 0.00,60.00,Friday
7,-15.144511757152532
8,-15.794348076026738
9,-15.794348076026738
10,0.000749489735459882
11,72.0
12,97600.0
13,4.3875
150,2592000.0
260,0.0
557,147945.20547945204
558,10.00150107465702
559,0.0
560,0.0
561,0.0
562,0.0
563,4064871.694127837
564,9.196409325793317
995,13.997224005528945
996,6.488286375038858
997,4.572781472177029
565,6564538.831875077
566,0.0
567,0.06385998314580191
568,21.95479931780796
569,0.0
570,0.0
571,0.0
572,0.0
623,12.128191702110193
1319,0.0
1320,0.0
2,2, 1,27, 0,19, 0.00,60.00,Friday
7,-16.091012314781057
8,-16.695801062703254
9,-16.695801062703254
10,0.0006864937101026886
11,72.0
12,97600.0
13,4.6000000000000005
150,2592000.0
260,0.0
557,147945.20547945204
558,9.492490917950196
559,0.0
560,0.0
561,0.0
562,0.0
563,4130886.4578004917
564,8.669193722954624
995,13.55924059460094
996,5.8887620618608905
997,3.967552761768585
565,6897056.164182892
566,0.0
567,0.0660963104487011
568,22.67738805869689
569,0.0
570,0.0
571,0.0
572,0.0
623,11.37804552977543
1319,0.0
1320,0.0
2,2, 1,27, 0,20, 0.00,60.00,Friday
7,-16.326432211813703
8,-16.919962586524694
9,-16.919962586524694
10,0.0006709637788805473
11,72.0
12,97662.5
13,5.2
150,2592000.0
260,0.0
557,147945.20547945204
558,8.989053459932308
559,0.0
560,0.0
561,0.0
562,0.0
563,4085386.1837726077
564,8.208432864010412
995,13.150275206459137
996,5.373186502174303
997,3.46183264018097
565,7100130.596281353
566,0.0
567,0.06890193126220978
568,23.58499103340661
569,0.0
570,0.0
571,0.0
572,0.0
623,11.043375173896317
1319,0.0
1320,0.0
2,2, 1,27, 0,21, 0.00,60.00,Friday
7,-16.800846482229144
8,-17.309301582155165
9,-17.309301582155165
10,0.0006693489762947673
11,75.125
12,97700.0
13,5.5125
150,2592000.0
260,0.0
557,147945.20547945204
558,8.537919214859551
559,0.0
560,0.0
561,0.0
562,0.0
563,4095931.9369881083
564,7.749219288541559
995,12.76882105954294
996,4.8702319308192354
997,2.9859309646309127
565,7291104.49397438
566,0.0
567,0.07082751087868966
568,24.194355014862104
569,0.0
570,0.0
571,0.0
572,0.0
623,11.12687838643268
1319,0.0
1320,0.0
2,2, 1,27, 0,22, 0.00,60.00,Friday
7,-17.001829637456332
8,-17.52683479430406
9,-17.52683479430406
10,0.0006455644162524222
11,73.875
12,97762.5
13,5.3875
150,2592000.0
260,0.0
557,147945.20547945204
558,8.125514393138566
559,0.0
560,0.0
561,0.0
562,0.0
563,4054131.071994928
564,7.413617814509126
995,12.450397031823494
996,4.493366237808501
997,2.6163050102006897
565,7149317.503717046
566,0.0
567,0.06992667360336216
568,23.841719102739876
569,0.0
570,0.0
571,0.0
572,0.0
623,10.831828836749587
1319,0.0
1320,0.0
2,2, 1,27, 0,23, 0.00,60.00,Friday
7,-16.791955640319415
8,-17.248277131827045
9,-17.248277131827045
10,0.0006917772980889194
11,77.625
12,97800.0
13,4.512499999999999
150,2592000.0
260,0.0
557,147945.20547945204
558,7.779467880492847
559,0.0
560,0.0
561,0.0
562,0.0
563,3916141.7989399135
564,7.202133272686402
995,12.214438302624217
996,4.279922681224189
997,2.439677214954206
565,6470741.228062837
566,0.0
567,0.06444760781437149
568,21.949808996267826
569,0.0
570,0.0
571,0.0
572,0.0
623,11.56674353796731
1319,0.0
1320,0.0
2,2, 1,27, 0,24, 0.00,60.00,Friday
7,-17.271297879174597
8,-17.656971464678726
9,-17.656971464678726
10,0.0006853317801222289
11,80.375
12,97737.5
13,3.4749999999999996
150,2592000.0
260,0.0
557,147945.20547945204
558,7.487984229035917
559,0.0
560,0.0
561,0.0
562,0.0
563,3889340.57398671
564,6.985170721677952
995,12.00156027902918
996,4.045501773417125
997,2.222156927839834
565,6031254.692680426
566,0.0
567,0.05940179183690304
568,20.22849318815946
569,0.0
570,0.0
571,0.0
572,0.0
623,11.729046026137883
1319,0.0
1320,0.0
2,3, 1,28, 0, 1, 0.00,60.00,Saturday
7,-17.477429142247793
8,-17.864349281928213
9,-17.864349281928213
10,0.0006690740721938508
11,80.0
12,97700.0
13,1.1625
150,2592000.0
260,0.0
557,147945.20547945204
558,7.240265975370292
559,0.0
560,0.0
561,0.0
562,0.0
563,3761329.907226136
564,6.95670239941038
995,11.87866028143786
996,4.009723191520908
997,2.1821620786370097
565,4821633.941662077
566,0.0
567,0.04712042208210317
568,16.050191662270436
569,0.0
570,0.0
571,0.0
572,0.0
623,11.558106253299645
1319,0.0
1320,0.0
2,3, 1,28, 0, 2, 0.00,60.00,Saturday
7,-17.272921592182215
8,-17.666325229345702
9,-17.666325229345702
10,0.000682512979140547
11,80.0
12,97637.5
13,1.9375
150,2592000.0
260,0.0
557,147945.20547945204
558,7.0248951004659705
559,0.0
560,0.0
561,0.0
562,0.0
563,3752525.5111322384
564,6.659877633202587
995,11.670807096515599
996,3.6921975427660243
997,1.8915124664002148
565,5068841.678883878
566,0.0
567,0.05063241881142689
568,17.239540580655017
569,0.0
570,0.0
571,0.0
572,0.0
623,11.902082196547175
1319,0.0
1320,0.0
2,3, 1,28, 0, 3, 0.00,60.00,Saturday
7,-17.070346740804638
8,-17.520191928534366
9,-17.520191928534366
10,0.0006736422100464685
11,77.5
12,97662.5
13,3.4125
150,2592000.0
260,0.0
557,147945.20547945204
558,6.776240453667233
559,0.0
560,0.0
561,0.0
562,0.0
563,3773981.42450416
564,6.356827747114858
995,11.44128204140557
996,3.35280745532034
997,1.5608670261085484
565,5634306.05519967
566,0.0
567,0.05757885336297815
568,19.5776234892393
569,0.0
570,0.0
571,0.0
572,0.0
623,11.670946389131663
1319,0.0
1320,0.0
2,3, 1,28, 0, 4, 0.00,60.00,Saturday
7,-16.494775424119297
8,-16.93064805949075
9,-16.93064805949075
10,0.0007265343641693775
11,79.125
12,97637.5
13,3.2875
150,2592000.0
260,0.0
557,147945.20547945204
558,6.560969825491119
559,0.0
560,0.0
561,0.0
562,0.0
563,3608780.5414427095
564,6.213849153482219
995,11.292944479064452
996,3.2160470719949847
997,1.4557193675855251
565,5260427.789885023
566,0.0
567,0.0555056414659512
568,18.869061166601767
569,0.0
570,0.0
571,0.0
572,0.0
623,12.456668206301678
1319,0.0
1320,0.0
2,3, 1,28, 0, 5, 0.00,60.00,Saturday
7,-15.383777777538068
8,-15.816142715256717
9,-15.816142715256717
10,0.000825057028505009
11,81.0
12,97600.0
13,3.7249999999999996
150,2592000.0